! Touchstone file exported from HFSS 3D Layout Design 2025.1.0
!        File:           C:/Users/pricewu/Documents/Ansoft/ASK5_CLB_CERT_P1.aedt
!        Generated:      08:49:48 PM May 21, 2026
!        Design:         clb_cert1
!        Project:        ASK5_CLB_CERT_P1
!        Setup:          Setup1
!        Solution:       Sweep1
!
# GHz S MA R 50.000000
! Terminal data exported
! Port[1] = ANT6_BTB
! Port[2] = ANT6_C10605
! Port[3] = ANT6_C10606
! Port[4] = ANT6_C10610
! Port[5] = ANT6_CONN
! Port[6] = ANT6_L10604
! Port[7] = ANT6_L10610
! Port[8] = ANT6_L10611
! Port[9] = ANT7_BTB
! Port[10] = ANT7_C10706
! Port[11] = ANT7_CONN
! Port[12] = ANT7_L10701
! Port[13] = ANT7_L10702
! Port[14] = ANT7_L10706
! Port[15] = ANT7_L10708
! Port[16] = ANT7_R10701
3.3                            0.284909864414079 127.344086850125 0.525538972192396 -24.474222745661 0.72825172369702 -19.7572152417589 0.13125678939643 -32.1564722432564 
                               0.0657192242426005 -40.0431230239378 0.19904784903065 -23.2029215695402 0.0658019206522227 -34.3297001748945 0.197867326859971 -28.5912965390927 
                               5.15586466617156E-05 124.902149776449 3.74958423940044E-07 46.2055808167104 2.08084318883871E-07 53.0241851993825 9.19202043589221E-07 120.401384864283 
                               2.55133610633775E-06 117.452372047138 2.26414682505798E-07 60.2777808578621 6.43173126168744E-07 67.0597914449105 1.55318877346053E-06 105.949589573628 
                               0.525538972192396 -24.474222745661 0.108105717144133 116.353293683014 0.536690114432072 -4.61092658629392 0.263071924130112 166.252297983862 
                               0.131743666945937 158.307818106633 0.398942451179165 175.595126764895 0.131879292952513 164.1144645308   0.396533935063589 169.965786377765 
                               4.99792054589541E-06 -67.7275852677462 7.21914014180112E-07 -58.3487411264235 3.77604882439321E-07 -61.6836052204731 1.57616672779304E-06 1.80108769499429 
                               4.63279898347587E-06 -1.66380443071369 3.90244898523738E-07 -59.479960766771 1.15709068998894E-06 -54.6845759984495 2.99080557157091E-06 -8.94596716663863 
                               0.72825172369702 -19.7572152417589 0.536690114432072 -4.61092658629393 0.261519445021689 166.015793855695 0.134085863463908 -12.7054205618631 
                               0.0671499353795731 -20.6796132143203 0.203235335418297 -2.96294832895252 0.0671812604709871 -14.7746295710461 0.201981583958078 -8.82897017559754 
                               1.69211371851964E-05 166.551882591077 2.18906194551618E-06 -11.8566973822955 1.09818743003733E-06 -15.82316062398  4.48001622829468E-06 48.8140078956529 
                               1.32372429533187E-05 44.5517178888089 1.09872914140191E-06 -13.3362587990613 3.27408306940865E-06 -8.76819365938846 8.73363775951342E-06 37.0001201402507 
                               0.13125678939643 -32.1564722432564 0.263071924130112 166.252297983862 0.134085863463908 -12.7054205618632 0.107392991502243 119.065699069667 
                               0.529439090205758 166.197401756253 0.398710815138698 -9.76790679329714 0.529787237367628 172.363469287219 0.401245810104991 -4.21821732084767 
                               9.25749591195352E-06 -43.9877178632275 3.99662703131204E-07 -135.43006096356 1.99738891603247E-07 -135.089993723686 8.50435401716902E-07 -68.9911139796585 
                               2.44989093885858E-06 -73.3699366850889 2.04770723038325E-07 -129.681553850837 6.03214757877412E-07 -125.605901886083 1.5890595864618E-06 -82.8820900352989 
                               0.0657192242426005 -40.0431230239378 0.131743666945937 158.307818106633 0.0671499353795731 -20.6796132143203 0.529439090205758 166.197401756253 
                               0.264735860517678 157.657679915427 0.199695153462534 -17.8408151840784 0.734591740500937 -9.00138841384263 0.200948264805895 -12.4942158788576 
                               3.27962650302849E-06 65.1656536011581 3.59612220641526E-07 -37.461063148992 1.90270406743242E-07 -38.1353510061746 7.87858228112334E-07 25.5133609914022 
                               2.28941963943304E-06 21.9373091683609 1.9789127664188E-07 -35.2812802659791 5.69873277609034E-07 -30.4211036240983 1.46992254985085E-06 13.6830284409063 
                               0.19904784903065 -23.2029215695402 0.398942451179164 175.595126764895 0.203235335418297 -2.96294832895251 0.398710815138697 -9.76790679329714 
                               0.199695153462534 -17.8408151840784 0.397612075473095 171.887116822882 0.199772773483082 -11.7615912978817 0.600562638612047 -4.89946218003968 
                               1.21663221815131E-05 134.898810354743 8.31710305962376E-07 -13.4233853462408 4.16838314284202E-07 -16.4559277358792 1.70115673401737E-06 48.5793771171096 
                               5.0012777682882E-06 44.1921108247178 4.17087563403353E-07 -13.45574582791  1.23457729384124E-06 -8.88574626981785 3.29680109077325E-06 36.1728862523084 
                               0.0658019206522226 -34.3297001748946 0.131879292952513 164.1144645308   0.0671812604709871 -14.7746295710461 0.529787237367628 172.363469287219 
                               0.734591740500937 -9.00138841384263 0.199772773483082 -11.7615912978817 0.265637093812388 170.009866337702 0.201020660907886 -6.00673283417223 
                               5.33911614802425E-06 87.7953733955629 3.82001376368714E-07 -58.0461847180477 1.97270863973443E-07 -59.3114529327112 8.17363277983684E-07 5.09196400137404 
                               2.38074888733161E-06 1.15762551326454 2.0245869318968E-07 -56.0829274840469 5.90567640031409E-07 -51.3845146123041 1.54290652593124E-06 -7.19402606420001 
                               0.197867326859971 -28.5912965390927 0.396533935063589 169.965786377765 0.201981583958078 -8.82897017559754 0.401245810104991 -4.21821732084768 
                               0.200948264805895 -12.4942158788576 0.600562638612047 -4.89946218003967 0.201020660907886 -6.00673283417222 0.397420406425798 171.842424812834 
                               8.37845520502209E-06 126.170984757178 6.27297049543056E-07 -28.4200161145597 3.18515633822608E-07 -31.3694013071394 1.30178104180599E-06 33.1430468559049 
                               3.82638990552513E-06 28.9868571382747 3.21300475757738E-07 -28.68831974969  9.47310037189306E-07 -24.0339493265654 2.5095203539244E-06 21.1343443172611 
                               5.15586466617156E-05 124.902149776449 4.99792054589541E-06 -67.7275852677462 1.69211371851964E-05 166.551882591077 9.25749591195352E-06 -43.9877178632275 
                               3.27962650302849E-06 65.1656536011581 1.21663221815131E-05 134.898810354743 5.33911614802425E-06 87.7953733955629 8.37845520502209E-06 126.170984757178 
                               0.264976390626878 124.828633047982 0.118256019402144 -75.2827446352033 0.0591957601949319 -80.0841979953371 0.241896498400749 -15.6751566320984 
                               0.717784081996412 -19.8554269019902 0.0591894933277844 -77.9247678109216 0.177740590105207 -73.3960468270964 0.474138720208574 -27.0330754408151 
                               3.74958423940044E-07 46.2055808167108 7.21914014180112E-07 -58.3487411264236 2.18906194551618E-06 -11.8566973822956 3.99662703131204E-07 -135.43006096356 
                               3.59612220641526E-07 -37.4610631489919 8.31710305962375E-07 -13.4233853462409 3.82001376368715E-07 -58.0461847180477 6.27297049543057E-07 -28.4200161145597 
                               0.118256019402144 -75.2827446352033 0.109808993158507 81.3577327133197 0.495857364954891 168.287559980372 0.373239992342182 -52.2384138250481 
                               0.126368691993906 -55.6225919999944 0.495801366598631 170.311909892926 0.509746609822536 2.93735557073459 0.245581236422666 123.807985408519 
                               2.0808431888387E-07 53.0241851993829 3.77604882439321E-07 -61.6836052204731 1.09818743003732E-06 -15.8231606239801 1.99738891603247E-07 -135.089993723686 
                               1.90270406743242E-07 -38.1353510061746 4.16838314284202E-07 -16.4559277358793 1.97270863973443E-07 -59.3114529327112 3.18515633822608E-07 -31.3694013071393 
                               0.0591957601949319 -80.0841979953371 0.49585736495489 168.287559980372 0.247452305667087 163.576778387817 0.186827516360993 -57.0413290160137 
                               0.063252190501941 -60.4240823401447 0.752701698851105 -6.02695251372332 0.255221745401391 -1.73387204351881 0.12293496850205 119.004621681865 
                               9.19202043589221E-07 120.401384864283 1.57616672779304E-06 1.80108769499429 4.48001622829468E-06 48.8140078956529 8.50435401716901E-07 -68.9911139796585 
                               7.87858228112333E-07 25.5133609914022 1.70115673401737E-06 48.5793771171096 8.17363277983685E-07 5.09196400137405 1.30178104180599E-06 33.1430468559049 
                               0.241896498400749 -15.6751566320984 0.373239992342182 -52.2384138250481 0.186827516360993 -57.0413290160137 0.287946276927775 146.625109250894 
                               0.258987669602315 4.69781794274823 0.186799236002531 -54.8810056689829 0.560953724783017 -50.3536291972744 0.502871344333628 -176.219447234597 
                               2.55133610633775E-06 117.452372047139 4.63279898347587E-06 -1.66380443071369 1.32372429533187E-05 44.5517178888089 2.44989093885858E-06 -73.3699366850889 
                               2.28941963943304E-06 21.9373091683609 5.00127776828819E-06 44.1921108247177 2.38074888733161E-06 1.15762551326455 3.82638990552513E-06 28.9868571382747 
                               0.717784081996412 -19.8554269019902 0.126368691993906 -55.6225919999944 0.063252190501941 -60.4240823401447 0.258987669602315 4.69781794274819 
                               0.239802549295319 163.365613549975 0.0632422852940675 -58.2633996384387 0.189914405066825 -53.7372554550621 0.506554884510662 -7.00617622167687 
                               2.26414682505799E-07 60.2777808578622 3.90244898523738E-07 -59.479960766771 1.09872914140191E-06 -13.3362587990613 2.04770723038324E-07 -129.681553850837 
                               1.97891276641879E-07 -35.2812802659791 4.17087563403353E-07 -13.45574582791  2.0245869318968E-07 -56.0829274840469 3.21300475757738E-07 -28.68831974969  
                               0.0591894933277844 -77.9247678109216 0.495801366598631 170.311909892926 0.752701698851106 -6.02695251372332 0.186799236002531 -54.8810056689829 
                               0.0632422852940675 -58.2633996384387 0.24830104327854 167.645227511138 0.255040586679914 0.165359535573663 0.122918788926733 121.163982329873 
                               6.43173126168744E-07 67.0597914449108 1.15709068998894E-06 -54.6845759984495 3.27408306940865E-06 -8.76819365938847 6.03214757877411E-07 -125.605901886083 
                               5.69873277609034E-07 -30.4211036240982 1.23457729384124E-06 -8.88574626981788 5.90567640031409E-07 -51.3845146123041 9.47310037189305E-07 -24.0339493265654 
                               0.177740590105207 -73.3960468270964 0.509746609822536 2.93735557073459 0.255221745401391 -1.7338720435188 0.560953724783017 -50.3536291972744 
                               0.189914405066825 -53.7372554550621 0.255040586679914 0.16535953557367 0.280387087963293 145.494999336197 0.369120436962017 125.693355534713 
                               1.55318877346053E-06 105.949589573628 2.99080557157091E-06 -8.94596716663862 8.73363775951342E-06 37.0001201402507 1.5890595864618E-06 -82.8820900352989 
                               1.46992254985085E-06 13.6830284409063 3.29680109077325E-06 36.1728862523083 1.54290652593124E-06 -7.19402606419999 2.5095203539244E-06 21.1343443172611 
                               0.474138720208573 -27.0330754408151 0.245581236422666 123.807985408519 0.12293496850205 119.004621681865 0.502871344333628 -176.219447234597 
                               0.506554884510662 -7.00617622167686 0.122918788926733 121.163982329873 0.369120436962017 125.693355534713 0.124598545893915 78.7807284013719 
! Gamma         0                69.1628857244055 0                69.1628857244055 0                69.1628857244055 0                69.1628857244055 0                69.1628857244055 0                69.1628857244055 0                69.1628857244055 0                69.1628857244055 0                69.1628857244055 0                69.1628857244055 0                69.1628857244055 0                69.1628857244055 0                69.1628857244055 0                69.1628857244055 0                69.1628857244055 0                69.1628857244055 
! Port Impedance         50               0                50               0                50               0                50               0                50               0                50               0                50               0                50               0                50               0                50               0                50               0                50               0                50               0                50               0                50               0                50               0                
3.31                           0.285021903275521 127.195100832928 0.525501226623032 -24.5474246914069 0.728231183356141 -19.8164371598307 0.131247076223496 -32.2528342417263 
                               0.0657151234484073 -40.163320426514 0.199045022323963 -23.2726224354911 0.0657980963292967 -34.4326560021266 0.197858261149667 -28.677004207791 
                               5.18542683012211E-05 124.895504032782 3.78192033891176E-07 43.7869450552175 2.08728076341375E-07 50.7487509651692 9.2182200124095E-07 118.323972245071 
                               2.55586981429035E-06 115.322261309976 2.26813025274387E-07 58.1139516802776 6.43208918694856E-07 64.8462799390781 1.55794576199336E-06 103.699228429259 
                               0.525501226623032 -24.5474246914069 0.108304264325891 116.240014723751 0.536709248504607 -4.6255530042723 0.26305330064958 166.211456911906 
                               0.131736006644267 158.242965935678 0.398937695748347 175.582082906556 0.131871988765013 164.067128001296 0.396516571498911 169.936017905212 
                               5.01318063164424E-06 -67.3832117345305 7.21825069607107E-07 -59.8493849619829 3.77606885107718E-07 -63.1781220263994 1.57793392824332E-06 0.447210205756621 
                               4.63463281468866E-06 -2.99045086726861 3.90323067207602E-07 -60.9618746568508 1.15720775876454E-06 -56.1432211058235 2.99053795266368E-06 -10.2853257335965 
                               0.728231183356141 -19.8164371598307 0.536709248504607 -4.6255530042723 0.261493709766153 165.974250648733 0.134090742024334 -12.7444425281491 
                               0.0671532522048002 -20.7427313043146 0.203253928986775 -2.97296195210204 0.0671845413464989 -14.8199110443109 0.201993555384423 -8.85639843289962 
                               1.70624093304051E-05 165.942339034722 2.19568788146103E-06 -13.2041085939898 1.10131033803894E-06 -17.186808924019 4.49714405200196E-06 47.5855201063547 
                               1.32797946770086E-05 43.3478580304352 1.1018085690516E-06 -14.6929224953102 3.28333587206694E-06 -10.1173287296414 8.75897665730185E-06 35.7934599642947 
                               0.131247076223496 -32.2528342417263 0.26305330064958 166.211456911906 0.134090742024335 -12.7444425281491 0.107591706366167 118.957309397245 
                               0.529420191931567 166.15597315241  0.398705458587049 -9.79738513187387 0.529768399909072 172.340652288314 0.401253679797618 -4.23129290709708 
                               9.34428439996893E-06 -44.1046693735407 4.01858564675054E-07 -137.153057503881 2.00643819465259E-07 -136.814525417741 8.54788882204403E-07 -70.5617206521658 
                               2.46091720754618E-06 -74.929496697742 2.05616489782664E-07 -131.381099490267 6.05492204503845E-07 -127.29864171884 1.59627697593377E-06 -84.4623081312223 
                               0.0657151234484073 -40.163320426514 0.131736006644267 158.242965935678 0.0671532522048002 -20.7427313043146 0.529420191931567 166.15597315241  
                               0.264729432234233 157.590566508044 0.199695197754069 -17.8946879150359 0.734602514240429 -9.02872632220021 0.200954905688097 -12.5322910970984 
                               3.30441722009454E-06 65.0431105950588 3.59253284520845E-07 -38.8606364219983 1.90052981946997E-07 -39.5335999805652 7.87825714374912E-07 24.2452967854037 
                               2.28785981789189E-06 20.6953257955044 1.97707328511382E-07 -36.6684119721935 5.69337847142977E-07 -31.7965168964323 1.46830234936551E-06 12.4364592251839 
                               0.199045022323963 -23.2726224354911 0.398937695748347 175.582082906556 0.203253928986775 -2.97296195210203 0.398705458587049 -9.79738513187387 
                               0.199695197754069 -17.8946879150359 0.397601265399741 171.862898609117 0.199772540622241 -11.7971205399517 0.600567392878171 -4.91439015288864 
                               1.22770219238472E-05 134.645499576482 8.34848517289299E-07 -14.7969871130128 4.18251344700293E-07 -17.8465305506501 1.70854758585266E-06 47.3205903544536 
                               5.02011858377708E-06 42.9563593728097 4.18466930100535E-07 -14.8385126721867 1.23866649229539E-06 -10.2671923127537 3.30842569514165E-06 34.9346865617391 
                               0.0657980963292967 -34.4326560021266 0.131871988765013 164.067128001296 0.0671845413464989 -14.8199110443109 0.529768399909072 172.340652288314 
                               0.734602514240429 -9.02872632220021 0.199772540622241 -11.7971205399517 0.265634137664529 169.980080951885 0.201026887738247 -6.025241921963  
                               5.37208575968806E-06 87.5474179031855 3.82285326560067E-07 -59.5590656199958 1.9734286881422E-07 -60.8287839135664 8.18495030122643E-07 3.70712581354869 
                               2.38264312297439E-06 -0.203826974632316 2.02542851427087E-07 -57.5881997840128 5.90784500186887E-07 -52.8822298282477 1.54367721117191E-06 -8.55977676295236 
                               0.197858261149667 -28.677004207791 0.396516571498911 169.936017905212 0.201993555384423 -8.85639843289962 0.401253679797618 -4.23129290709708 
                               0.200954905688097 -12.5322910970984 0.600567392878171 -4.91439015288864 0.201026887738246 -6.02524192196299 0.397408718286575 171.818178787595 
                               8.44902181706846E-06 125.921683529741 6.2874305022249E-07 -29.7959971733394 3.19148614557292E-07 -32.763310200058 1.3056723657271E-06 31.8823175596442 
                               3.83563476821353E-06 27.7500651175959 3.21925252564905E-07 -30.0748517874603 9.49232898614943E-07 -25.4158122588299 2.51487836416186E-06 19.896323307464  
                               5.18542683012212E-05 124.895504032782 5.01318063164423E-06 -67.3832117345303 1.70624093304051E-05 165.942339034722 9.34428439996891E-06 -44.1046693735406 
                               3.30441722009452E-06 65.0431105950588 1.22770219238472E-05 134.645499576482 5.37208575968805E-06 87.5474179031855 8.44902181706847E-06 125.921683529741 
                               0.265057366892901 122.948246375805 0.118210838281091 -76.5590912797843 0.0591736280802945 -81.3750812539645 0.242045054717482 -16.8286044481422 
                               0.717762076798856 -20.9824393381693 0.0591672602554986 -79.2091189556864 0.17767468218885 -74.6667379385676 0.473943699960147 -28.1638560041888 
                               3.78192033891176E-07 43.7869450552178 7.21825069607107E-07 -59.8493849619829 2.19568788146103E-06 -13.2041085939898 4.01858564675053E-07 -137.153057503881 
                               3.59253284520845E-07 -38.8606364219982 8.34848517289298E-07 -14.7969871130129 3.82285326560067E-07 -59.5590656199959 6.2874305022249E-07 -29.7959971733394 
                               0.118210838281091 -76.5590912797843 0.109910422475212 81.2181938826399 0.495727922734311 168.265821879395 0.373164250416985 -52.3923342522405 
                               0.126394049357353 -55.854270609038 0.49567075423409 170.296251013723 0.510075984434097 2.90112344136828 0.245486356189912 123.677754625119 
                               2.08728076341374E-07 50.7487509651695 3.77606885107718E-07 -63.1781220263994 1.10131033803894E-06 -17.186808924019 2.00643819465259E-07 -136.814525417741 
                               1.90052981946997E-07 -39.5335999805652 4.18251344700293E-07 -17.8465305506501 1.9734286881422E-07 -60.8287839135664 3.19148614557293E-07 -32.763310200058 
                               0.0591736280802945 -81.3750812539645 0.495727922734311 168.265821879395 0.247386910575881 163.5409576004   0.18679118580988 -57.2097788095162 
                               0.0632654491637022 -60.6702853840447 0.752765308288185 -6.05032284417357 0.255388662468677 -1.78430004652974 0.122888552175873 118.859899332703 
                               9.21822001240951E-07 118.323972245071 1.57793392824332E-06 0.44721020575662 4.49714405200196E-06 47.5855201063547 8.54788882204403E-07 -70.5617206521658 
                               7.87825714374911E-07 24.2452967854037 1.70854758585266E-06 47.3205903544536 8.18495030122643E-07 3.70712581354871 1.3056723657271E-06 31.8823175596443 
                               0.242045054717483 -16.8286044481422 0.373164250416985 -52.3923342522405 0.186791185809881 -57.2097788095162 0.287307895872833 146.574915321551 
                               0.259295684939745 4.5910451406306  0.186762486427869 -55.0429242801001 0.56084580426829 -50.5019165169848 0.50318472503963 -176.225276674795 
                               2.55586981429035E-06 115.322261309976 4.63463281468866E-06 -2.99045086726862 1.32797946770086E-05 43.3478580304352 2.46091720754618E-06 -74.929496697742 
                               2.28785981789189E-06 20.6953257955044 5.02011858377708E-06 42.9563593728097 2.38264312297439E-06 -0.203826974632298 3.83563476821353E-06 27.7500651175959 
                               0.717762076798856 -20.9824393381692 0.126394049357353 -55.854270609038 0.0632654491637022 -60.6702853840447 0.259295684939745 4.59104514063057 
                               0.239128199635591 163.538595452494 0.0632553759159646 -58.5030720911474 0.189954454550313 -53.9633079848301 0.506642095845124 -7.0908862579211 
                               2.26813025274387E-07 58.1139516802777 3.90323067207601E-07 -60.9618746568509 1.1018085690516E-06 -14.6929224953102 2.05616489782664E-07 -131.381099490267 
                               1.97707328511381E-07 -36.6684119721934 4.18466930100535E-07 -14.8385126721867 2.02542851427087E-07 -57.5881997840128 3.21925252564905E-07 -30.0748517874602 
                               0.0591672602554986 -79.2091189556863 0.49567075423409 170.296251013723 0.752765308288185 -6.05032284417357 0.186762486427868 -55.0429242801001 
                               0.0632553759159645 -58.5030720911474 0.248239936662595 167.621695510835 0.25520708555994 0.120824492911428 0.122872121089753 121.025765799902 
                               6.43208918694855E-07 64.8462799390784 1.15720775876454E-06 -56.1432211058235 3.28333587206694E-06 -10.1173287296414 6.05492204503844E-07 -127.29864171884 
                               5.69337847142976E-07 -31.7965168964323 1.23866649229539E-06 -10.2671923127537 5.90784500186886E-07 -52.8822298282477 9.49232898614943E-07 -25.4158122588299 
                               0.17767468218885 -74.6667379385676 0.510075984434097 2.90112344136828 0.255388662468677 -1.78430004652973 0.56084580426829 -50.5019165169848 
                               0.189954454550313 -53.9633079848301 0.25520708555994 0.120824492911432 0.279875550377885 145.443386531334 0.368981860624211 125.568755788407 
                               1.55794576199336E-06 103.699228429259 2.99053795266368E-06 -10.2853257335965 8.75897665730183E-06 35.7934599642947 1.59627697593377E-06 -84.4623081312224 
                               1.46830234936551E-06 12.4364592251839 3.30842569514165E-06 34.934686561739  1.54367721117191E-06 -8.55977676295235 2.51487836416186E-06 19.896323307464  
                               0.473943699960148 -28.1638560041888 0.245486356189912 123.677754625119 0.122888552175873 118.859899332703 0.50318472503963 -176.225276674795 
                               0.506642095845124 -7.09088625792111 0.122872121089753 121.025765799902 0.368981860624211 125.568755788407 0.124309904948281 78.5875684487899 
! Gamma         5.76636034320273E-33 69.3724702266007 1.12100049375297E-33 69.3724702266007 0                69.3724702266007 2.32416253211788E-33 69.3724702266007 0                69.3724702266007 0                69.3724702266007 1.12039663167845E-33 69.3724702266007 5.93249501865047E-33 69.3724702266007 0                69.3724702266007 0                69.3724702266007 5.76620937768414E-33 69.3724702266007 5.76620937768414E-33 69.3724702266007 0                69.3724702266007 0                69.3724702266007 3.35867757680509E-33 69.3724702266007 0                69.3724702266007 
! Port Impedance         50               0                50               0                50               0                50               0                50               0                50               0                50               0                50               0                50               0                50               0                50               0                50               0                50               0                50               0                50               0                50               0                
3.32                           0.285134178464796 127.04619199388  0.525463395027762 -24.6206206222564 0.728210610678422 -19.8756554394333 0.131237341030668 -32.3491896777435 
                               0.0657110142740745 -40.2835112708005 0.199042195329401 -23.3423201785527 0.0657942640851864 -34.5356054115601 0.197849178813871 -28.7627064624018 
                               5.21516061042295E-05 124.886503964783 3.81543029631198E-07 41.3786169254148 2.09416764847805E-07 48.4707525993795 9.24605583488686E-07 116.241699355937 
                               2.56095285438742E-06 113.186918159077 2.2724640220101E-07 55.9452212418478 6.43365369290996E-07 62.6248108100404 1.56315705635369E-06 101.447826043669 
                               0.525463395027762 -24.6206206222564 0.108502969111992 116.127064549921 0.536728425593272 -4.64018510935479 0.263034631069941 166.17062163756  
                               0.131728329006749 158.178119573207 0.398932933118285 175.569041158193 0.13186466749634 164.019797081149 0.396499168510127 169.906253877008 
                               5.03038326385674E-06 -67.0277691934667 7.21716031183673E-07 -61.3499491315573 3.77599577264037E-07 -64.6726491080479 1.57965659296493E-06 -0.906646235184839 
                               4.63635774436691E-06 -4.3168835308315 3.90391135434272E-07 -62.4437508300449 1.15730188513137E-06 -57.6019457232934 2.9901906502087E-06 -11.6237242420618 
                               0.728210610678422 -19.8756554394333 0.536728425593271 -4.64018510935479 0.26146790667756 165.932712354786 0.13409563277134 -12.7834697502551 
                               0.0671565782878825 -20.8058546117338 0.203272572372604 -2.98298424703468 0.0671878311102036 -14.8651977672373 0.202005558719504 -8.88383289308864 
                               1.72002330197989E-05 165.330059186061 2.20234881511365E-06 -14.5512895204869 1.10445138343039E-06 -18.5503049103727 4.51437976209552E-06 46.356915711398  
                               1.3322628390823E-05 42.1440902198266 1.1049065718971E-06 -16.0494580352788 3.2926459848461E-06 -11.4662665374919 8.78448096097858E-06 34.5870416273993 
                               0.131237341030668 -32.3491896777435 0.263034631069941 166.17062163756  0.134095632771341 -12.7834697502551 0.107790615625315 118.849240555269 
                               0.529401248031319 166.114546779083 0.398700089174256 -9.82686334699836 0.529749513859672 172.317837430166 0.401261568733087 -4.24437131887961 
                               9.43182934243766E-06 -44.2296010541297 4.04066409426177E-07 -138.875683698375 2.01553421821901E-07 -138.539533230177 8.59166540101985E-07 -72.13369233423  
                               2.47201117076281E-06 -76.4899439384784 2.06466202517893E-07 -133.08153406404 6.0778531062939E-07 -128.992574363489 1.60352589010746E-06 -86.0424382345491 
                               0.0657110142740745 -40.2835112708005 0.131728329006749 158.178119573207 0.0671565782878825 -20.8058546117338 0.52940124803132 166.114546779083 
                               0.26472299224179 157.523455731637 0.199695245242202 -17.9485604866407 0.734613323700405 -9.05606553167048 0.200961566101259 -12.5703690535129 
                               3.32916761243196E-06 64.9036555788846 3.58884357249497E-07 -40.2581345917555 1.898310638029E-07 -40.9298366132007 7.87777101010784E-07 22.978737281154  
                               2.28626295049578E-06 19.4552589681112 1.97518994005478E-07 -38.0537972013874 5.68788481068612E-07 -33.1703009716223 1.46665898373197E-06 11.1920715562033 
                               0.199042195329401 -23.3423201785527 0.398932933118285 175.569041158193 0.203272572372604 -2.98298424703466 0.398700089174256 -9.82686334699836 