! Touchstone file exported from HFSS 3D Layout Design 2025.1.0
!        File:           C:/Users/pricewu/Documents/Ansoft/ASK_SLB_0403.aedt
!        Generated:      06:32:06 AM Apr  7, 2026
!        Design:         ASK_SLB_0403_ANT6_7
!        Project:        ASK_SLB_0403
!        Setup:          Setup1
!        Solution:       Sweep1
!
# GHz S MA R 50.000000
! Terminal data exported
! Port[1] = ANT6_UHB0_C10960
! Port[2] = ANT6_UHB0_C10961
! Port[3] = ANT6_UHB0_L10960
! Port[4] = ANT6_UHB0_PAout
! Port[5] = ANT6_UHB0_SLB_CONN
! Port[6] = ANT7_C10970
! Port[7] = ANT7_C10971
! Port[8] = ANT7_L10970
! Port[9] = ANT7_UHB0_PAout
! Port[10] = ANT7_UHB0_SLB_CONN
0.5                            0.249101645084045 -179.994682390524 0.250569030896149 -0.764951868450323 0.500051784181528 179.360714508627 0.249357837546073 -5.12045104502624 
                               0.748488777112293 -3.54777946478555 1.3944436314756E-06 83.0373090358137 2.22310037263628E-07 137.931703216199 1.99000139830908E-06 -103.940931559553 
                               5.55088488019714E-06 81.4082508869459 1.463444865209E-06 -107.649663103642 
                               0.250569030896149 -0.764951868450323 0.248601202707508 179.546089169846 0.500570017997633 -0.400378398498962 0.747618978331518 -4.56441266282753 
                               0.249820727387227 -3.93728322866841 2.81131748522815E-07 -146.270404548052 2.11091433008333E-06 -113.101415959889 3.85944118126452E-06 -102.256751362232 
                               1.41461783517648E-05 82.2888884875204 1.70702754415588E-06 -113.694390719764 
                               0.500051784181528 179.360714508627 0.500570017997632 -0.400378398498962 0.00345582036439521 73.0384830046651 0.498179305055399 -4.6966465480078 
                               0.498590897379428 176.247525367925 2.24386488434755E-06 -101.372533463933 2.38913312097593E-06 -106.16136710575 1.90474142180933E-06 -99.7620555349508 
                               8.84105329867889E-06 82.3158586798045 4.44936764589351E-07 99.4520823366906 
                               0.249357837546073 -5.12045104502624 0.747618978331518 -4.56441266282753 0.498179305055399 -4.6966465480078 0.246614378372506 170.878229128017 
                               0.248648094847954 -8.17428017867734 6.56921641530062E-06 83.6236871255133 1.2818560155209E-05 84.252109613983  1.0032999637452E-05 84.8368962511262 
                               1.45703647924402E-05 -98.0181800762916 5.41410971048097E-06 77.5841995026532 
                               0.748488777112293 -3.54777946478555 0.249820727387227 -3.93728322866841 0.498590897379428 176.247525367925 0.248648094847954 -8.17428017867734 
                               0.24738017957731 173.750022289712 1.88630115431327E-06 -106.768982197214 9.98975469424851E-07 -116.402763398281 1.69722577589429E-07 -125.414084655462 
                               4.80846571881973E-06 79.5539412903354 3.64419303636758E-06 85.3064403564041 
                               1.39444363147561E-06 83.0373090358135 2.81131748522847E-07 -146.27040454806 2.24386488434758E-06 -101.372533463936 6.56921641530062E-06 83.6236871255113 
                               1.88630115431327E-06 -106.768982197215 0.248170768879727 -179.469479459092 0.250502925083478 -1.23504304343141 0.500966910193196 179.41455933535  
                               0.250393484770902 -1.75434235504293 0.746058685359855 -8.04608688273201 
                               2.22310037263621E-07 137.931703216197 2.11091433008335E-06 -113.101415959891 2.38913312097596E-06 -106.161367105753 1.28185601552089E-05 84.2521096139812 
                               9.98975469424861E-07 -116.402763398283 0.250502925083478 -1.23504304343141 0.249638586322339 -179.290315996786 0.49949435215043 -0.715540901917806 
                               0.749834827786426 -1.1414245017225 0.248638765022109 -8.77204581588408 
                               1.99000139830909E-06 -103.940931559554 3.85944118126454E-06 -102.256751362233 1.90474142180933E-06 -99.762055534952 1.0032999637452E-05 84.8368962511243 
                               1.69722577589437E-07 -125.414084655469 0.500966910193196 179.41455933535  0.49949435215043 -0.715540901917808 0.00126694939013464 30.7212003569212 
                               0.499278802461167 -1.23123218680891 0.497240851555259 171.881182078732 
                               5.55088488019715E-06 81.4082508869453 1.41461783517648E-05 82.2888884875204 8.84105329867889E-06 82.315858679805  1.45703647924402E-05 -98.0181800762921 
                               4.80846571881973E-06 79.5539412903352 0.250393484770902 -1.75434235504293 0.749834827786426 -1.1414245017225 0.499278802461167 -1.23123218680891 
                               0.249419442760226 179.677557946363 0.248532692456226 -9.28410555092726 
                               1.463444865209E-06 -107.649663103641 1.70702754415587E-06 -113.694390719763 4.44936764589365E-07 99.4520823366985 5.41410971048097E-06 77.5841995026524 
                               3.64419303636759E-06 85.3064403564043 0.746058685359855 -8.04608688273201 0.248638765022109 -8.77204581588408 0.497240851555259 171.881182078732 
                               0.248532692456226 -9.28410555092726 0.244432656085499 165.273101808473 
! Gamma         0                10.4792251097584 0                10.4792251097584 0                10.4792251097584 0                10.4792251097584 0                10.4792251097584 0                10.4792251097584 0                10.4792251097584 0                10.4792251097584 0                10.4792251097584 0                10.4792251097584 
! Port Impedance         50               0                50               0                50               0                50               0                50               0                50               0                50               0                50               0                50               0                50               0                
0.51                           0.249094635092365 -179.992349406701 0.250575086122633 -0.781466419457864 0.500049660738973 179.34782331079  0.249347732366195 -5.22144271886197 
                               0.748469110031436 -3.61755270552085 1.42220320004108E-06 82.8950521614302 2.26851888646134E-07 137.575416306457 2.02822718327E-06 -104.09082397062 
                               5.65921172351489E-06 81.3251472563465 1.49105373751439E-06 -107.828664525953 
                               0.250575086122633 -0.781466419457865 0.248583714492263 179.540032589266 0.500577887255424 -0.40882173158018 0.747585787641962 -4.65394412675999 
                               0.249818760722672 -4.01545110289531 2.86242592856029E-07 -146.46335101994 2.14743956025362E-06 -113.213807411457 3.93323845996273E-06 -102.33334252345 
                               1.44191667216792E-05 82.2337665630645 1.73885467677595E-06 -113.941081376757 
                               0.500049660738973 179.34782331079  0.500577887255423 -0.40882173158018 0.00351343046935249 73.1236286996583 0.498155527784168 -4.7885380102846 
                               0.498572518521723 176.174069951465 2.28662118578165E-06 -101.465497906236 2.43377391431664E-06 -106.259885803107 1.94050700763762E-06 -99.7632574606504 
                               9.01130421071005E-06 82.268551551204  4.54755199791916E-07 99.4357413637421 
                               0.249347732366194 -5.22144271886198 0.747585787641961 -4.65394412675999 0.498155527784168 -4.7885380102846 0.246589660507299 170.702300744474 
                               0.248631678029225 -8.33428423487167 6.69660482318757E-06 83.5781282079979 1.30665264893455E-05 84.2374617578959 1.02274413620156E-05 84.8338122912765 
                               1.48468348708596E-05 -98.0226630622376 5.51973355463039E-06 77.4243820362523 
                               0.748469110031436 -3.61755270552085 0.249818760722672 -4.01545110289531 0.498572518521723 176.174069951465 0.248631678029225 -8.33428423487166 
                               0.247345104057418 173.630370420071 1.92232473401772E-06 -106.94573679999 1.0172757727664E-06 -116.619191499529 1.72054314450633E-07 -125.492527021219 
                               4.90229965536029E-06 79.4391291538163 3.71510979677094E-06 85.2660571207979 
                               1.42220320004109E-06 82.89505216143   2.86242592856061E-07 -146.463351019947 2.28662118578168E-06 -101.465497906239 6.69660482318757E-06 83.578128207996  
                               1.92232473401772E-06 -106.945736799992 0.248155441895422 -179.454621043311 0.250507028774921 -1.26084827010396 0.500975385257969 179.401773168175 
                               0.250396297805951 -1.79029288115357 0.746012633804649 -8.20354232650515 
                               2.26851888646128E-07 137.575416306454 2.14743956025365E-06 -113.21380741146 2.43377391431666E-06 -106.25988580311 1.30665264893455E-05 84.2374617578942 
                               1.01727577276641E-06 -116.619191499531 0.25050702877492 -1.26084827010396 0.249637650792208 -179.27515107262 0.499488721743334 -0.729290553669442 
                               0.74983073812987 -1.16414936136118 0.248626728470346 -8.94455178592898 
                               2.02822718327001E-06 -104.090823970621 3.93323845996275E-06 -102.333342523451 1.94050700763761E-06 -99.7632574606515 1.02274413620156E-05 84.8338122912746 
                               1.72054314450642E-07 -125.492527021227 0.500975385257969 179.401773168175 0.499488721743334 -0.729290553669444 0.00127756744864212 30.5780804268716 
                               0.49927061842023 -1.25505633368013 0.497210127518003 171.722469015172 
                               5.65921172351489E-06 81.3251472563459 1.44191667216793E-05 82.2337665630645 9.01130421071005E-06 82.2685515512046 1.48468348708596E-05 -98.0226630622382 
                               4.9022996553603E-06 79.4391291538162 0.250396297805951 -1.79029288115357 0.74983073812987 -1.16414936136118 0.49927061842023 -1.25505633368013 
                               0.249415847272067 179.672604470792 0.248517587621193 -9.46740502428633 
                               1.49105373751438E-06 -107.828664525952 1.73885467677594E-06 -113.941081376757 4.54755199791932E-07 99.4357413637497 5.5197335546304E-06 77.4243820362515 
                               3.71510979677095E-06 85.2660571207981 0.746012633804649 -8.20354232650515 0.248626728470346 -8.94455178592898 0.497210127518003 171.722469015172 
                               0.248517587621193 -9.46740502428632 0.244365194805812 164.988368426449 
! Gamma         0                10.6888096119536 0                10.6888096119536 0                10.6888096119536 0                10.6888096119536 0                10.6888096119536 0                10.6888096119536 0                10.6888096119536 0                10.6888096119536 0                10.6888096119536 0                10.6888096119536 
! Port Impedance         50               0                50               0                50               0                50               0                50               0                50               0                50               0                50               0                50               0                50               0                
0.52                           0.249087859673456 -179.989974004121 0.250581058124688 -0.798012883386315 0.50004745292879 179.334930537498 0.249337655713866 -5.32239658216432 
                               0.748449639642718 -3.68729717837505 1.44995495965623E-06 82.7527772619969 2.31440244261036E-07 137.22678048319  2.06641222219494E-06 -104.241553544717 
                               5.76744597346259E-06 81.2412050790991 1.51859504619108E-06 -108.009593031847 
                               0.250581058124688 -0.798012883386316 0.248566375690384 179.534050600418 0.500585789887488 -0.41728184489694 0.747552801204846 -4.7434289845513 
                               0.249816840527097 -4.09361367326539 2.91382236297611E-07 -146.664926781231 2.18398528548149E-06 -113.32771639431 4.00692578365774E-06 -102.411695243527 
                               1.46919829317099E-05 82.1781673126596 1.77061206602246E-06 -114.189735007047 
                               0.50004745292879 179.334930537498 0.500585789887488 -0.417281844896942 0.00357078785000231 73.2069340433528 0.498131951496425 -4.88037703825784 
                               0.498554301331878 176.100654529976 2.32930927580848E-06 -101.559441776733 2.47832755223773E-06 -106.360301699482 1.97621443225836E-06 -99.7657276351453 
                               9.18145635174371E-06 82.2207498784596 4.64611632531346E-07 99.4198382910008 
                               0.249337655713866 -5.32239658216433 0.747552801204845 -4.7434289845513 0.498131951496425 -4.88037703825784 0.246564730093486 170.526531185202 
                               0.248615445597396 -8.49424731830558 6.82386499940062E-06 83.5320509826199 1.33142519754939E-05 84.2221330348487 1.0421735991517E-05 84.8301268102121 
                               1.5122864203453E-05 -98.0282581845144 5.62527662059059E-06 77.2638710601846 
                               0.748449639642718 -3.68729717837505 0.249816840527097 -4.09361367326538 0.498554301331878 176.100654529976 0.248615445597396 -8.49424731830557 
                               0.247310229005525 173.510841809547 1.95828929738948E-06 -107.12400583811 1.03553707260783E-06 -116.83821236452 1.74390417140785E-07 -125.571496419652 
                               4.99605986071878E-06 79.3234637085263 3.78600948920405E-06 85.2254187785333 
                               1.44995495965624E-06 82.7527772619967 2.91382236297644E-07 -146.664926781238 2.32930927580851E-06 -101.559441776735 6.82386499940061E-06 83.532050982618  
                               1.95828929738948E-06 -107.124005838111 0.248140543211412 -179.439650017098 0.250511020812123 -1.28668211465826 0.500983653280721 179.388958477248 
                               0.250399014238622 -1.8262661527749 0.745967032548013 -8.36097207069109 
                               2.3144024426103E-07 137.226780483187 2.18398528548152E-06 -113.327716394313 2.47832755223775E-06 -106.360301699485 1.33142519754939E-05 84.2221330348469 
                               1.03553707260784E-06 -116.838212364522 0.250511020812122 -1.28668211465826 0.249636866605659 -179.259964848926 0.499483170237281 -0.743024430012927 
                               0.749826613652722 -1.18687084863963 0.248614500828877 -9.11701221063372 
                               2.06641222219494E-06 -104.241553544718 4.00692578365776E-06 -102.411695243528 1.97621443225835E-06 -99.7657276351465 1.0421735991517E-05 84.8301268102102 
                               1.74390417140795E-07 -125.571496419661 0.500983653280721 179.388958477248 0.499483170237281 -0.743024430012929 0.0012878901121147 30.4310452380874 
                               0.499262543257276 -1.2788589192362 0.497179711574038 171.563778088925 
                               5.76744597346259E-06 81.2412050790985 1.46919829317099E-05 82.1781673126596 9.18145635174373E-06 82.22074987846   1.5122864203453E-05 -98.0282581845149 
                               4.99605986071878E-06 79.3234637085261 0.250399014238622 -1.82626615277491 0.749826613652722 -1.18687084863963 0.499262543257276 -1.2788589192362 
                               0.249412437715817 179.667681574783 0.248502400530084 -9.65061115055841 
                               1.51859504619108E-06 -108.009593031846 1.77061206602245E-06 -114.189735007047 4.64611632531363E-07 99.4198382910083 5.62527662059059E-06 77.2638710601838 
                               3.78600948920406E-06 85.2254187785334 0.745967032548013 -8.36097207069109 0.248614500828878 -9.11701221063371 0.497179711574038 171.563778088925 
                               0.248502400530084 -9.6506111505584 0.244298020524432 164.703937918389 
! Gamma         0                10.8983941141487 0                10.8983941141487 0                10.8983941141487 0                10.8983941141487 0                10.8983941141487 0                10.8983941141487 0                10.8983941141487 0                10.8983941141487 0                10.8983941141487 0                10.8983941141487 
! Port Impedance         50               0                50               0                50               0                50               0                50               0                50               0                50               0                50               0                50               0                50               0                
0.53                           0.249081318196161 -179.987558499043 0.250586945125894 -0.814590009469844 0.500045160650701 179.322036352747 0.249327609331519 -5.42331397190939 
                               0.748430368940953 -3.75701407732529 1.47769874470083E-06 82.6104810642987 2.36073829658955E-07 136.885458555588 2.10455798953969E-06 -104.39305146589 
                               5.87558916322866E-06 81.1564906295863 1.54606874339519E-06 -108.192295335427 
                               0.250586945125894 -0.814590009469845 0.248549188938334 179.528140181275 0.500593722811536 -0.425758483015853 0.747520026002329 -4.83286895465571 
                               0.249814965308741 -4.1717712634986 2.96550323135521E-07 -146.874490904949 2.22055315000783E-06 -113.443174887045 4.08050476505703E-06 -102.491675298137 
                               1.49646358628056E-05 82.1221119910847 1.80230099235548E-06 -114.440187497587 
                               0.500045160650701 179.322036352747 0.500593722811535 -0.425758483015856 0.00362790120499888 73.2885814487829 0.498108580947443 -4.97216567086203 
                               0.498536249064314 176.027277500436 2.37193038048832E-06 -101.654284973178 2.52279612498511E-06 -106.462463276651 2.01186576075721E-06 -99.7693613825118 
                               9.35151592817403E-06 82.1724730156014 4.7450579932061E-07 99.4042925257861 
                               0.249327609331519 -5.42331397190941 0.747520026002329 -4.83286895465571 0.498108580947443 -4.97216567086202 0.246539615922393 170.35091807282  
                               0.248599389996774 -8.65417137114289 6.95099926309922E-06 83.4854977835307 1.35617430774247E-05 84.2061766647527 1.06158900737868E-05 84.8258858965387 
                               1.53984632406395E-05 -98.0348736229938 5.73074120878652E-06 77.1027256133218 
                               0.748430368940953 -3.75701407732529 0.249814965308741 -4.1717712634986 0.498536249064314 176.027277500436 0.248599389996774 -8.65417137114287 
                               0.247275557922146 173.391430822574 1.99419556046734E-06 -107.303663455862 1.05376059568044E-06 -117.059610013294 1.76730951670946E-07 -125.65120730336 
                               5.08974809953491E-06 79.2070133303156 3.85689223001221E-06 85.1845150008797 
                               1.47769874470084E-06 82.6104810642985 2.96550323135552E-07 -146.874490904956 2.37193038048834E-06 -101.654284973181 6.9509992630992E-06 83.4854977835289 
                               1.99419556046734E-06 -107.303663455863 0.248126080997504 -179.424571132205 0.25051489913889 -1.31254332024926 0.500991709994091 179.376116471743 
                               0.250401632254218 -1.86226117183922 0.745921854745999 -8.51837684839971 
                               2.3607382965895E-07 136.885458555586 2.22055315000788E-06 -113.443174887049 2.52279612498512E-06 -106.462463276654 1.35617430774247E-05 84.206176664751  
                               1.05376059568045E-06 -117.059610013296 0.25051489913889 -1.31254332024926 0.249636234525772 -179.244758464738 0.49947770008186 -0.756743122312205 
                               0.749822454990282 -1.20958903886822 0.248602095685607 -9.28942687606524 
                               2.10455798953969E-06 -104.393051465891 4.08050476505705E-06 -102.491675298138 2.01186576075719E-06 -99.769361382513 1.06158900737867E-05 84.8258858965369 
                               1.76730951670957E-07 -125.65120730337 0.500991709994091 179.376116471743 0.49947770008186 -0.756743122312207 0.0012979200263545 30.2806129886525 
                               0.499254579867473 -1.30264079393766 0.497149584615539 171.405108956033 
                               5.87558916322867E-06 81.1564906295858 1.49646358628056E-05 82.1221119910848 9.35151592817404E-06 82.1724730156019 1.53984632406395E-05 -98.0348736229943 
                               5.08974809953492E-06 79.2070133303155 0.250401632254217 -1.86226117183923 0.749822454990282 -1.20958903886822 0.499254579867473 -1.30264079393766 
                               0.249409214437668 179.66278756527  0.248487139339684 -9.83372524084046 
                               1.54606874339519E-06 -108.192295335426 1.80230099235547E-06 -114.440187497586 4.74505799320628E-07 99.4042925257934 5.73074120878651E-06 77.1027256133211 
                               3.85689223001222E-06 85.1845150008799 0.745921854745999 -8.51837684839971 0.248602095685607 -9.28942687606522 0.497149584615539 171.405108956033 
                               0.248487139339684 -9.83372524084045 0.24423116036856 164.419800786721 
! Gamma         0                11.1079786163439 0                11.1079786163439 0                11.1079786163439 0                11.1079786163439 0                11.1079786163439 0                11.1079786163439 0                11.1079786163439 0                11.1079786163439 0                11.1079786163439 0                11.1079786163439 
! Port Impedance         50               0                50               0                50               0                50               0                50               0                50               0                50               0                50               0                50               0                50               0                
0.54                           0.2490750097089  -179.985105104202 0.250592745609749 -0.831196575369049 0.500042783856392 179.309140915973 0.249317594686491 -5.52419618858714 
                               0.748411300245563 -3.826704558778  1.50543438885729E-06 82.4681604601213 2.40751392063638E-07 136.55113537968  2.14266594315514E-06 -104.545256068626 
                               5.98364285428787E-06 81.071064227618  1.57347482294493E-06 -108.376630670126 
                               0.250592745609749 -0.83119657536905 0.248532156294437 179.522298403476 0.500601683097348 -0.43425138413983 0.747487467953363 -4.92226571213854 
                               0.24981313362942 -4.2499241666017 3.0174653544239E-07 -147.091439853496 2.25714456573502E-06 -113.560206033295 4.15397707935151E-06 -102.573160057235 
                               1.52371339144752E-05 82.0656193334963 1.83392277095736E-06 -114.692289586503 
                               0.500042783856392 179.309140915973 0.500601683097347 -0.434251384139834 0.00368477912690657 73.3687327598661 0.498085420077516 -5.06390589163181 
                               0.498518364346772 175.953937306366 2.4144857209636E-06 -101.749955388011 2.56718174555371E-06 -106.566233137916 2.04746304071926E-06 -99.7740648530209 
                               9.52148880324847E-06 82.1237379568175 4.84437445427965E-07 99.3890327679443 
                               0.249317594686491 -5.52419618858715 0.747487467953362 -4.92226571213853 0.498085420077516 -5.0639058916318 0.246514345545775 170.175459034652 
                               0.248583503918542 -8.81405816026185 7.07800988252805E-06 83.4385065600298 1.38090061481261E-05 84.1896403962211 1.08099100322581E-05 84.8211305532502 
                               1.56736423874979E-05 -98.0424267281332 5.83612963767331E-06 76.9409990876384 
                               0.748411300245563 -3.826704558778  0.24981313362942 -4.24992416660169 0.498518364346772 175.953937306366 0.248583503918542 -8.81405816026183 
                               0.247241093297498 173.272132008916 2.03004427392627E-06 -107.484594715557 1.07194759273742E-06 -117.283188010714 1.79075959052944E-07 -125.731845428349 
                               5.1833661605344E-06 79.0898401575264 3.9277580531407E-06 85.1433373815791 
                               1.5054343888573E-06 82.468160460121  3.0174653544242E-07 -147.091439853503 2.41448572096362E-06 -101.749955388014 7.07800988252802E-06 83.438506560028  
                               2.03004427392627E-06 -107.484594715558 0.248112062430661 -179.409389068384 0.250518661960111 -1.33843065063386 0.500999551639945 179.363248342683 
                               0.250404150247399 -1.89827695358897 0.745877075439912 -8.67575728189117 
                               2.40751392063633E-07 136.551135379677 2.25714456573507E-06 -113.560206033299 2.56718174555372E-06 -106.566233137919 1.3809006148126E-05 84.1896403962195 
                               1.07194759273742E-06 -117.283188010716 0.250518661960111 -1.33843065063386 0.249635755108992 -179.229533026077 0.499472313467121 -0.770447214643523 
                               0.749818262718809 -1.23230400613754 0.248589525974564 -9.46179561798778 
                               2.14266594315515E-06 -104.545256068626 4.15397707935153E-06 -102.573160057236 2.04746304071923E-06 -99.774064853022 1.08099100322581E-05 84.8211305532484 
                               1.79075959052956E-07 -125.73184542836 0.500999551639945 179.363248342683 0.499472313467121 -0.770447214643526 0.00130766012071416 30.1272634821586 
                               0.499246730783887 -1.32640279352477 0.497119729053809 171.246461358599 
                               5.98364285428787E-06 81.0710642276174 1.52371339144752E-05 82.0656193334964 9.5214888032485E-06 82.1237379568179 1.56736423874979E-05 -98.0424267281337 
                               5.1833661605344E-06 79.0898401575262 0.250404150247399 -1.89827695358898 0.749818262718809 -1.23230400613754 0.499246730783887 -1.32640279352477 
                               0.249406177501968 179.657920810277 0.248471812008079 -10.0167486493599 
                               1.57347482294492E-06 -108.376630670125 1.83392277095735E-06 -114.692289586503 4.84437445427983E-07 99.3890327679514 5.8361296376733E-06 76.9409990876377 
                               3.92775805314071E-06 85.1433373815792 0.745877075439912 -8.67575728189118 0.248589525974564 -9.46179561798776 0.497119729053809 171.246461358599 
                               0.248471812008079 -10.0167486493599 0.24416463927286 164.135947568744 
! Gamma         0                11.3175631185391 0                11.3175631185391 0                11.3175631185391 0                11.3175631185391 0                11.3175631185391 0                11.3175631185391 0                11.3175631185391 0                11.3175631185391 0                11.3175631185391 0                11.3175631185391 
! Port Impedance         50               0                50               0                50               0                50               0                50               0                50               0                50               0                50               0                50               0                50               0                
0.55                           0.249068932976858 -179.982615930937 0.250598458303062 -0.847831388668985 0.500040322545389 179.296244381984 0.249307612990562 -5.62504449495196 
                               0.748392435254277 -3.89636974095091 1.53316172509967E-06 82.3258124914865 2.45471700477555E-07 136.223516442955 2.18073752112667E-06 -104.698112090705 
                               6.09160863014687E-06 80.9849808016111 1.60081331723431E-06 -108.56246967694 
                               0.250598458303062 -0.847831388668986 0.248515279284066 179.516522434104 0.50060966796456 -0.442760281020166 0.747455131986021 -5.01162088686707 
                               0.249811344106365 -4.32807264756201 3.06970590234538E-07 -147.315205137686 2.29376074089584E-06 -113.678825140313 4.22734445542557E-06 -102.656037413092 
                               1.55094850203628E-05 82.0087059155863 1.86547874549334E-06 -114.945905475991 
                               0.500040322545389 179.296244381984 0.50060966796456 -0.44276028102017 0.00374143008008232 73.4475314221535 0.498062472070245 -5.15559962689937 
                               0.498500649227126 175.880632439015 2.45697650927943E-06 -101.846388103638 2.61148654145317E-06 -106.671486649106 2.08300829723591E-06 -99.779753904506 
                               9.69138050979197E-06 82.0745596927145 4.94406325646427E-07 99.3739959631529 
                               0.249307612990561 -5.62504449495198 0.74745513198602 -5.01162088686707 0.498062472070245 -5.15559962689936 0.246488945306738 170.00015169823  
                               0.248567780315202 -8.97390929214476 7.2048990695269E-06 83.39111134453   1.40560474162431E-05 84.1725670851753 1.10038021561505E-05 84.8158972557773 
                               1.59484119721304E-05 -98.0508430953534 5.94144423695336E-06 76.7787397747858 
                               0.748392435254277 -3.89636974095091 0.249811344106366 -4.328072647562  0.498500649227127 175.880632439015 0.248567780315202 -8.97390929214473 
                               0.247206836695837 173.152940105658 2.06583621890938E-06 -107.666694597492 1.09009933330837E-06 -117.508767633664 1.81425459081222E-07 -125.813570864923 
                               5.27691585057795E-06 78.972000684137  3.99860691910756E-06 85.1018792211444 