! Touchstone file exported from HFSS 3D Layout Design 2025.1.0
!        File:           C:/Users/pricewu/Documents/Ansoft/G651-19062-01_CLB_V22.aedt
!        Generated:      03:36:47 AM Apr  8, 2026
!        Design:         G651-19062-01_CLB_V22_cutout
!        Project:        G651-19062-01_CLB_V22
!        Setup:          Setup1
!        Solution:       Sweep1
!
# GHz S MA R 50.000000
! Terminal data exported
! Port[1] = ANT6_C10603
! Port[2] = ANT6_C10605
! Port[3] = ANT6_C10606
! Port[4] = ANT6_CLB_BTB
! Port[5] = ANT6_CONN
! Port[6] = ANT6_L10604
! Port[7] = ANT7_C10704
! Port[8] = ANT7_CLB_BTB
! Port[9] = ANT7_CONN
! Port[10] = ANT7_L10701
! Port[11] = ANT7_L10702
! Port[12] = ANT7_R10701
0.5                            0.23224194958716 3.76484521031604 0.307204876625598 177.430337014088 0.153935332802798 -1.5672286745362 0.153420861530998 -5.70721373759185 
                               0.768364309247408 177.586912789381 0.461290252409236 -1.55711139987278 1.24816959884608E-06 27.5021464475683 7.30771223920957E-06 -113.487295204744 
                               1.12684892335145E-06 21.2559310406539 2.36223087334732E-06 28.6049018161742 6.05328068233125E-06 31.5888349847897 3.69132082274835E-06 32.7869575042534 
                               0.307204876625597 177.430337014088 0.0788928770919618 9.5138725553514  0.462148546651417 0.130993352668355 0.460583462482816 -4.06361416717317 
                               0.307187814498246 176.217573458261 0.614903921489172 178.704490625196 3.26661067402103E-06 27.8634432914102 1.92319936695843E-05 -112.618401548216 
                               3.08802594438752E-06 24.3300828762311 6.33290440041494E-06 30.1045933222242 1.60591073827772E-05 32.645959178162  9.72843268563674E-06 33.5581652129478 
                               0.153935332802798 -1.5672286745362 0.462148546651417 0.130993352668356 0.230013742088424 175.271634978408 0.767787372729118 -3.73186720086455 
                               0.153923227091314 -2.77888626586856 0.308126209841712 -0.251659110755769 4.55588937541335E-06 29.731620102645  2.815086794096E-05 -115.260940360356 
                               6.02856909303361E-06 23.3273102101174 1.05013186271006E-05 29.4959508176872 2.49112213624503E-05 33.2037869722167 1.44186750605852E-05 34.9018542277077 
                               0.153420861530997 -5.70721373759185 0.460583462482817 -4.06361416717317 0.767787372729118 -3.73186720086455 0.23262590018904 166.917450191304 
                               0.15341096328945 -6.91914405659061 0.307081500867559 -4.47374478071252 7.92170745150417E-06 -152.290780074086 4.99064828381844E-05 71.9369291155369 
                               6.30436901194919E-06 -152.183153156837 1.42240820873121E-05 -148.031184578704 3.72106180332192E-05 -146.472677806856 2.29963104609258E-05 -146.136934209408 
                               0.768364309247408 177.586912789381 0.307187814498246 176.217573458261 0.153923227091314 -2.77888626586856 0.15341096328945 -6.91914405659061 
                               0.231608512378725 1.35582468913106 0.461260187856891 -2.76947643230607 9.89443905316991E-07 39.4330424269191 7.13770855632341E-06 -122.783252111257 
                               2.62372791642258E-06 16.3788341224314 3.4990964424972E-06 25.0511086103551 7.21080941548462E-06 33.0199255184052 3.7404061424027E-06 38.7475276620028 
                               0.461290252409235 -1.55711139987278 0.614903921489172 178.704490625196 0.308126209841712 -0.25165911075577 0.307081500867559 -4.47374478071252 
                               0.461260187856891 -2.76947643230608 0.07656909304529 176.12774078518  1.76557870069289E-06 33.311306603554  1.17589793510421E-05 -118.978073172341 
                               3.36056919700696E-06 20.3943430129523 5.04089093369798E-06 27.7000857419407 1.11096898147348E-05 33.314881879624  6.08320373375744E-06 36.61966530058   
                               1.24816959884608E-06 27.5021464475683 3.26661067402103E-06 27.8634432914103 4.55588937541335E-06 29.7316201026451 7.92170745150418E-06 -152.290780074086 
                               9.89443905316994E-07 39.433042426919  1.76557870069289E-06 33.311306603554  0.237941613590722 6.896501954946   0.149303230486145 -56.9128302968468 
                               0.764219256660254 176.716858131591 0.464529001220203 -5.39330654573042 0.161335212200462 -4.792137604041  0.303119549419608 173.544399423441 
                               7.30771223920949E-06 -113.487295204742 1.92319936695835E-05 -112.618401548218 2.81508679409592E-05 -115.260940360356 4.99064828381853E-05 71.9369291155372 
                               7.13770855632344E-06 -122.783252111255 1.17589793510421E-05 -118.978073172339 0.149303230486145 -56.9128302968469 0.283332145160049 69.7699495699112 
                               0.149279147171578 -57.948823273962 0.297934938898171 -53.5911558751511 0.746246128388982 -51.4462696017538 0.448510342080645 -50.8026375779759 
                               1.12684892335145E-06 21.2559310406539 3.08802594438752E-06 24.3300828762311 6.02856909303361E-06 23.3273102101174 6.30436901194918E-06 -152.183153156837 
                               2.62372791642258E-06 16.3788341224314 3.36056919700696E-06 20.3943430129523 0.764219256660254 176.716858131591 0.149279147171578 -57.948823273962 
                               0.237583712078622 4.83475690229881 0.464453848199446 -6.42979521464772 0.161308626189798 -5.82840132961583 0.303072052133624 172.507759215076 
                               2.36223087334732E-06 28.6049018161742 6.33290440041494E-06 30.1045933222242 1.05013186271006E-05 29.4959508176872 1.42240820873121E-05 -148.031184578704 
                               3.4990964424972E-06 25.0511086103551 5.04089093369798E-06 27.7000857419407 0.464529001220202 -5.39330654573042 0.297934938898171 -53.5911558751512 
                               0.464453848199446 -6.42979521464771 0.0759078034100517 -164.406176325963 0.321989386045984 -1.27651630393661 0.604891650924255 176.969121719247 
                               6.05328068233125E-06 31.5888349847897 1.60591073827772E-05 32.6459591781619 2.49112213624503E-05 33.2037869722167 3.72106180332192E-05 -146.472677806856 
                               7.21080941548462E-06 33.0199255184052 1.11096898147348E-05 33.314881879624  0.161335212200462 -4.79213760404101 0.746246128388983 -51.4462696017538 
                               0.161308626189798 -5.82840132961583 0.321989386045985 -1.27651630393661 0.194440601452525 173.505411396101 0.48475319527105 1.44650354287199 
                               3.69132082274835E-06 32.7869575042534 9.72843268563674E-06 33.5581652129478 1.44186750605852E-05 34.9018542277077 2.29963104609258E-05 -146.136934209408 
                               3.74040614240271E-06 38.7475276620028 6.08320373375744E-06 36.61966530058   0.303119549419608 173.544399423441 0.448510342080645 -50.8026375779759 
                               0.303072052133624 172.507759215076 0.604891650924255 176.969121719247 0.48475319527105 1.44650354287199 0.0893792087779588 1.91199573637637 
! Gamma         0                10.4792251097584 0                10.4792251097584 0                10.4792251097584 0                10.4792251097584 0                10.4792251097584 0                10.4792251097584 0                10.4792251097584 0                10.4792251097584 0                10.4792251097584 0                10.4792251097584 0                10.4792251097584 0                10.4792251097584 
! Port Impedance         50               0                50               0                50               0                50               0                50               0                50               0                50               0                50               0                50               0                50               0                50               0                50               0                
0.51                           0.232290023602758 3.83842508947139 0.307193039499996 177.379538799445 0.153940813246281 -1.59841670529033 0.153411498288167 -5.82011018359927 
                               0.768346175903727 177.539189258068 0.461287182236085 -1.5879327107222 1.27256237532502E-06 26.3266177745843 7.37408192842229E-06 -113.601102585285 
                               1.14702951004463E-06 19.9942292100212 2.40620812978813E-06 27.476963182153  6.16876966229829E-06 30.5093290663409 3.76279412129353E-06 31.7234357635101 
                               0.307193039499995 177.379538799444 0.0789613831886855 9.69457985693094 0.462171998255625 0.133407443977143 0.460561971834162 -4.14397816227065 
                               0.307177482326192 176.142765523406 0.614891532007284 178.678908280981 3.32989243527425E-06 26.7024716668649 1.94065597104663E-05 -112.715266503612 
                               3.14551066338856E-06 23.121973745352  6.4522782880602E-06 29.001690781164  1.63660137568679E-05 31.5879456818774 9.91606181715719E-06 32.5140043087131 
                               0.153940813246278 -1.59841670528689 0.462171998255614 0.133407443964596 0.22999724526001 175.178145300166 0.767754675683648 -3.80564396202344 
                               0.153929317301528 -2.8340533399728 0.308142932514122 -0.256816550732751 4.64728134532763E-06 28.6014762912451 2.84180243400496E-05 -115.456894268848 
                               6.13869189432542E-06 22.0327646076073 1.06972011645632E-05 28.3636420509304 2.53912614553916E-05 32.1441017648321 1.47031935170524E-05 33.8735286203488 
                               0.153411498288165 -5.82011018359862 0.460561971834162 -4.14397816227063 0.767754675683647 -3.80564396202326 0.232730495699973 166.661691835874 
                               0.153402311802944 -7.05603089557656 0.307068379258118 -4.56222350466597 8.07124126381521E-06 -153.444961488505 5.04112079117113E-05 71.9515967444153 
                               6.42713760326983E-06 -153.30207706706 1.44959241522932E-05 -149.081475587222 3.79177117594371E-05 -147.501932416387 2.34321179122934E-05 -147.164004953212 
                               0.768346175903727 177.539189258068 0.307177482326192 176.142765523406 0.153929317301524 -2.8340533399738 0.153402311802944 -7.05603089557605 
                               0.231634641877943 1.38220198898421 0.461259219241921 -2.82429448915252 1.01393248345044E-06 38.370291805487  7.21199662021159E-06 -123.286540732787 
                               2.66919837118465E-06 14.9438989214886 3.56111908070815E-06 23.8043425990893 7.35200975923274E-06 31.9209321925316 3.82003240752939E-06 37.7278965261026 
                               0.461287182236095 -1.58793271072876 0.614891532007283 178.678908280981 0.308142932514137 -0.25681655072383 0.307068379258117 -4.56222350466563 
                               0.461259219241919 -2.82429448914862 0.0765612175349802 176.051168104755 1.80342854238185E-06 32.19743220353   1.18761479885663E-05 -119.321042023338 
                               3.42050174179045E-06 19.0512318514233 5.13300619940666E-06 26.5173883820982 1.13256796970725E-05 32.2399285857784 6.20756925410629E-06 35.6001162090097 
                               1.27256237532502E-06 26.3266177745843 3.32989243527424E-06 26.7024716668648 4.64728134532763E-06 28.6014762912451 8.07124126381519E-06 -153.444961488505 
                               1.01393248345044E-06 38.3702918054869 1.80342854238184E-06 32.1974322035302 0.238154877546218 7.01389421408257 0.149234796966292 -58.0213272509332 
                               0.764086441250087 176.655245487897 0.464612804743529 -5.50963056249822 0.161502952155276 -4.95257698943973 0.303031190524744 173.436146999342 
                               7.3740819284222E-06 -113.601102585283 1.94065597104667E-05 -112.71526650361 2.84180243400487E-05 -115.456894268849 5.04112079117119E-05 71.9515967444158 
                               7.21199662021162E-06 -123.286540732785 1.18761479885663E-05 -119.321042023336 0.149234796966292 -58.0213272509335 0.284693790000737 67.9744520138712 
                               0.14921080058172 -59.0778329046576 0.297737005672509 -54.6329622848018 0.745805786802935 -52.4450985444859 0.44827873074803 -51.7891626072918 
                               1.14702951004463E-06 19.9942292100211 3.14551066338856E-06 23.121973745352  6.13869189432564E-06 22.0327646076063 6.42713760326981E-06 -153.30207706706 
                               2.66919837118464E-06 14.9438989214884 3.42050174179045E-06 19.0512318514233 0.764086441250087 176.655245487897 0.14921080058172 -59.0778329046574 
                               0.237779230769795 4.91252902954368 0.464537113173986 -6.56666766792902 0.161475291142558 -6.01034823661708 0.302983288760008 172.378813505551 
                               2.40620812978813E-06 27.476963182153  6.45227828806021E-06 29.001690781164  1.06972011645632E-05 28.3636420509304 1.44959241522931E-05 -149.081475587221 
                               3.56111908070816E-06 23.8043425990893 5.13300619940665E-06 26.5173883820983 0.464612804743528 -5.50963056249821 0.297737005672509 -54.6329622848018 
                               0.464537113173987 -6.56666766792902 0.0760377312162529 -163.997379254771 0.322280918541919 -1.36680873001342 0.604634093436613 176.928891589333 
                               6.16876966229831E-06 30.509329066341  1.63660137568679E-05 31.5879456818774 2.53912614553916E-05 32.1441017648321 3.79177117594372E-05 -147.501932416387 
                               7.35200975923274E-06 31.9209321925315 1.13256796970725E-05 32.2399285857784 0.161502952155276 -4.95257698943974 0.745805786802935 -52.4450985444859 
                               0.161475291142558 -6.01034823661708 0.32228091854192 -1.36680873001342 0.193614231859308 173.606093860256 0.485265238024345 1.41077149308362 
                               3.76279412129354E-06 31.7234357635101 9.9160618171572E-06 32.5140043087131 1.47031935170524E-05 33.8735286203488 2.34321179122934E-05 -147.164004953212 
                               3.82003240752939E-06 37.7278965261027 6.20756925410629E-06 35.6001162090097 0.303031190524744 173.436146999342 0.44827873074803 -51.7891626072917 
                               0.302983288760008 172.378813505551 0.604634093436613 176.928891589333 0.485265238024345 1.41077149308362 0.0896209632251178 1.74179352060878 
! Gamma         0                10.6888096119536 0                10.6888096119536 0                10.6888096119536 0                10.6888096119536 0                10.6888096119536 0                10.6888096119536 0                10.6888096119536 0                10.6888096119536 0                10.6888096119536 0                10.6888096119536 3.14700575748232E-35 10.6888096119536 0                10.6888096119536 
! Port Impedance         50               0                50               0                50               0                50               0                50               0                50               0                50               0                50               0                50               0                50               0                50               0                50               0                
0.52                           0.232338935463179 3.91194933088399 0.307181053628374 177.328749433767 0.153946427690136 -1.62961060024572 0.153402044203495 -5.93298851454084 
                               0.768327891950609 177.491473251144 0.461284132908042 -1.6187513871644 1.29694485879532E-06 25.1510531173716 7.43728101774022E-06 -113.695132455177 
                               1.1671368414499E-06 18.7353742865011 2.45007933936792E-06 26.3502057564576 6.28409125528152E-06 29.430337321026  3.8342079704962E-06 30.660084395066  
                               0.307181053628374 177.328749433767 0.0790310853019753 9.8748599475496  0.462195903384568 0.135810541903905 0.460540258427784 -4.22432846300863 
                               0.307167073666213 176.06797035216  0.614878993837833 178.653332043612 3.39312463042094E-06 25.5416474718169 1.95729791657057E-05 -112.791913442227 
                               3.20286289205773E-06 21.9151899635858 6.57141576453907E-06 27.8995137901782 1.66724895155574E-05 30.530334623056  1.01035056460009E-05 31.4700796676313 
                               0.153946427690133 -1.62961060023914 0.462195903384541 0.135810541880446 0.229980539641722 175.084664275519 0.767721655869943 -3.8794070685396 
                               0.153935577260304 -2.88921978532478 0.308159998606327 -0.261982475572483 4.73874499387635E-06 27.4704564223296 2.86723688884045E-05 -115.635984384441 
                               6.24834699578797E-06 20.7427247192027 1.08925596643017E-05 27.2325653847823 2.58707584538431E-05 31.0847405965579 1.49877085648718E-05 32.8448688656209 
                               0.153402044203493 -5.93298851453958 0.460540258427784 -4.22432846300859 0.767721655869941 -3.87940706853925 0.232837365307992 166.40615023425  
                               0.153393603484032 -7.19289483873782 0.307055150286933 -4.65068628631818 8.22048547960142E-06 -154.598379138412 5.08983174779789E-05 71.9856417739539 
                               6.54988972511491E-06 -154.421528628723 1.4767400599969E-05 -150.132152611954 3.86236411367176E-05 -148.530897363711 2.38671661379221E-05 -148.190505305709 
                               0.768327891950609 177.491473251144 0.307167073666213 176.06797035216  0.153935577260296 -2.8892197853266 0.153393603484031 -7.19289483873684 
                               0.231661258873026 1.4085576326937  0.461258377467705 -2.87910546517332 1.03856767332041E-06 37.2997423227813 7.28265734800966E-06 -123.780262436135 
                               2.71430828270191E-06 13.5115837172561 3.62280290299161E-06 22.5605093290582 7.49312464728317E-06 30.822335590832  3.89993051545692E-06 36.7066261492662 
                               0.461284132908057 -1.61875138717695 0.614878993837831 178.653332043613 0.30815999860636 -0.261982475555979 0.307055150286932 -4.65068628631752 
                               0.461258377467702 -2.87910546516591 0.0765532151642382 175.97458783742  1.84141302117834E-06 31.082499341025  1.19876196577715E-05 -119.650813592868 
                               3.4800748413172E-06 17.7103100722937 5.22476318673007E-06 25.3366273572615 1.15414868322778E-05 31.1652852635957 6.33212407781752E-06 34.5794831638887 
                               1.29694485879532E-06 25.1510531173716 3.39312463042093E-06 25.5416474718167 4.73874499387635E-06 27.4704564223296 8.22048547960139E-06 -154.598379138413 
                               1.03856767332041E-06 37.2997423227812 1.84141302117832E-06 31.0824993410254 0.238369471174205 7.13059507695231 0.149167550893804 -59.1287072626593 
                               0.76395316438826 176.593783494506 0.464695437294517 -5.6262668822088 0.161666637297921 -5.11522545636731 0.30294567525379 173.328680398186 
                               7.43728101774012E-06 -113.695132455176 1.95729791657075E-05 -112.791913442221 2.86723688884035E-05 -115.635984384442 5.08983174779792E-05 71.9856417739542 
                               7.2826573480097E-06 -123.780262436133 1.19876196577716E-05 -119.650813592866 0.149167550893802 -59.1287072626599 0.286017598882515 66.1902592409259 
                               0.149143643886761 -60.2057213695726 0.297541501679489 -55.6736027655753 0.745372725807857 -53.4427790332715 0.448051961702515 -52.7745527761673 
                               1.1671368414499E-06 18.7353742865011 3.20286289205773E-06 21.9151899635858 6.24834699578839E-06 20.7427247192008 6.54988972511489E-06 -154.421528628724 
                               2.71430828270189E-06 13.5115837172557 3.4800748413172E-06 17.7103100722936 0.763953164388259 176.593783494506 0.149143643886761 -60.2057213695723 
                               0.23797658871714 4.98969198814638 0.464619250515737 -6.70384535119606 0.161637754574868 -6.19445214901322 0.302897352258729 172.250665426875 
                               2.45007933936792E-06 26.3502057564578 6.57141576453909E-06 27.8995137901783 1.08925596643017E-05 27.2325653847824 1.47674005999688E-05 -150.132152611952 
                               3.62280290299163E-06 22.5605093290582 5.22476318673006E-06 25.3366273572615 0.464695437294517 -5.62626688220878 0.29754150167949 -55.6736027655751 
                               0.464619250515737 -6.70384535119607 0.0761789032778285 -163.587658230376 0.322563316822678 -1.4593384401918 0.60438030211666 176.889446493108 
                               6.28409125528153E-06 29.4303373210261 1.66724895155574E-05 30.5303346230559 2.58707584538431E-05 31.0847405965579 3.86236411367177E-05 -148.53089736371 
                               7.49312464728317E-06 30.822335590832  1.15414868322778E-05 31.1652852635958 0.161666637297921 -5.11522545636731 0.745372725807857 -53.4427790332715 
                               0.161637754574869 -6.19445214901322 0.322563316822678 -1.4593384401918 0.192803297148033 173.71820617484  0.485765361279932 1.37276472314416 
                               3.83420797049621E-06 30.660084395066  1.01035056460009E-05 31.4700796676312 1.49877085648718E-05 32.8448688656209 2.38671661379221E-05 -148.190505305708 
                               3.89993051545692E-06 36.7066261492664 6.33212407781752E-06 34.5794831638886 0.30294567525379 173.328680398186 0.448051961702515 -52.7745527761672 
                               0.302897352258729 172.250665426875 0.604380302116659 176.889446493108 0.485765361279932 1.37276472314418 0.0898549833695621 1.56510505005055 
! Gamma         0                10.8983941141487 0                10.8983941141487 0                10.8983941141487 0                10.8983941141487 0                10.8983941141487 0                10.8983941141487 0                10.8983941141487 0                10.8983941141487 0                10.8983941141487 0                10.8983941141487 6.3560888146684E-35 10.8983941141487 0                10.8983941141487 
! Port Impedance         50               0                50               0                50               0                50               0                50               0                50               0                50               0                50               0                50               0                50               0                50               0                50               0                
0.53                           0.232388686184224 3.98541713804764 0.30716891800966 177.277968879262 0.153952175773667 -1.66081066659165 0.153392498256182 -6.04584890888318 
                               0.768309455283928 177.443764672004 0.461281103382683 -1.64956753778288 1.32131853496198E-06 23.9754852898925 7.49740211797659E-06 -113.76869918706 
                               1.18717398202555E-06 17.4793442210848 2.4938485954373E-06 25.2246476136143 6.39925387432665E-06 28.3518901025051 3.90556697938011E-06 29.5969374833917 
                               0.307168918009659 177.277968879261 0.0791019810327544 10.0547067141101 0.462220261905505 0.138202449695984 0.460518320118877 -4.30466517643191 
                               0.307156587329212 175.993187817305 0.614866306267731 178.627761878349 3.45631143306161E-06 24.3810043581877 1.9731511255533E-05 -112.847697099068 
                               3.2600885434913E-06 20.7097507783083 6.69032604927597E-06 26.7980904204524 1.69785559151276E-05 29.4731595346273 1.02907767517587E-05 30.426426011243  
                               0.153952175773664 -1.66081066658223 0.462220261905461 0.138202449663124 0.229963622732596 174.991191848365 0.767688310247955 -3.95315664204165 
                               0.153942006917115 -2.94438619163247 0.308177408302479 -0.267157197470339 4.83028541601778E-06 26.3386103627485 2.89141277716432E-05 -115.797554258528 
                               6.35754219394325E-06 19.4570561436374 1.10874070160027E-05 26.1027354626829 2.63497407915286E-05 30.025733786697  1.52722361485299E-05 31.8159153713152 
                               0.153392498256179 -6.04584890888134 0.460518320118877 -4.30466517643185 0.767688310247952 -3.95315664204114 0.232946498650791 166.150828403364 
                               0.153384837529387 -7.32973614060462 0.307041812866476 -4.73913329447256 8.36945139039775E-06 -155.751006451859 5.1368583099253E-05 72.0395874487663 
                               6.67263664032689E-06 -155.541444593786 1.50385297652185E-05 -151.183151618024 3.93284559108361E-05 -149.559530639306 2.43014878026613E-05 -149.216401961244 
                               0.768309455283927 177.443764672004 0.307156587329211 175.993187817305 0.153942006917105 -2.9443861916349 0.153384837529386 -7.32973614060321 
                               0.231688364451315 1.43489097785844 0.461257661571229 -2.93390956781673 1.06334768858194E-06 36.2218239778266 7.34966871782419E-06 -124.263935471443 
                               2.75905610310178E-06 12.0819233191847 3.68415135665404E-06 21.3195908992213 7.63415980402331E-06 29.724149007363  3.98010416699158E-06 35.6837240289842 
                               0.461281103382697 -1.64956753780084 0.614866306267729 178.627761878349 0.308177408302533 -0.267157197447512 0.307041812866475 -4.73913329447161 
                               0.46125766157123 -2.93390956780619 0.0765450845826938 175.898000110436 1.87953382154048E-06 29.9664954619653 1.20934198329265E-05 -119.96679223265 
                               3.53928838276801E-06 16.3716116326331 5.31616690531343E-06 24.1578052711401 1.17571216727421E-05 30.0909752994906 6.4568736588497E-06 33.5578034157353 
                               1.32131853496198E-06 23.9754852898926 3.45631143306159E-06 24.3810043581875 4.83028541601777E-06 26.3386103627484 8.3694513903977E-06 -155.751006451859 
                               1.06334768858193E-06 36.2218239778266 1.87953382154045E-06 29.9664954619658 0.238585336051349 7.24662306911853 0.149101598632715 -60.2349951523788 
                               0.763819497115478 176.53246811611  0.464776801428164 -5.74320703597481 0.161826040456155 -5.28001591863447 0.302863161848423 173.221979631635 
                               7.49740211797648E-06 -113.768699187059 1.9731511255536E-05 -112.847697099059 2.89141277716422E-05 -115.797554258529 5.13685830992531E-05 72.0395874487667 
                               7.34966871782425E-06 -124.263935471441 1.20934198329266E-05 -119.966792232648 0.149101598632712 -60.2349951523798 0.287302082440781 64.4169589724096 
                               0.149077784166803 -61.3325135928437 0.297348645405935 -56.713103518592 0.744947480675779 -54.4393384806325 0.447830358378732 -53.7588347181023 
                               1.18717398202555E-06 17.4793442210847 3.26008854349129E-06 20.7097507783083 6.35754219394388E-06 19.4570561436349 6.67263664032685E-06 -155.541444593786 
                               2.75905610310176E-06 12.0819233191841 3.539288382768E-06 16.3716116326329 0.763819497115478 176.53246811611  0.149077784166802 -61.3325135928431 
                               0.238175711860178 5.06625129133    0.464700164514491 -6.84131993299363 0.161795801424811 -6.38064283871852 0.302814404380066 172.123295426339 
                               2.49384859543731E-06 25.2246476136145 6.69032604927599E-06 26.7980904204525 1.10874070160027E-05 26.1027354626831 1.50385297652183E-05 -151.183151618021 
                               3.68415135665407E-06 21.3195908992214 5.31616690531342E-06 24.1578052711402 0.464776801428164 -5.74320703597479 0.297348645405935 -56.7131035185917 
                               0.464700164514491 -6.84131993299363 0.076331515660978 -163.177359183942 0.322836112196638 -1.5540381355165 0.604130588707164 176.850768020031 
                               6.39925387432667E-06 28.3518901025053 1.69785559151276E-05 29.4731595346272 2.63497407915286E-05 30.0257337866971 3.93284559108364E-05 -149.559530639305 
                               7.63415980402331E-06 29.724149007363  1.17571216727421E-05 30.0909752994907 0.161826040456155 -5.28001591863447 0.74494748067578 -54.4393384806323 
                               0.161795801424811 -6.38064283871852 0.322836112196638 -1.5540381355165 0.192009435214406 173.84168447563  0.4862528469383  1.33254829815068 
                               3.90556697938012E-06 29.5969374833916 1.02907767517587E-05 30.4264260112429 1.52722361485299E-05 31.8159153713152 2.43014878026613E-05 -149.216401961243 
                               3.98010416699159E-06 35.6837240289845 6.45687365884969E-06 33.5578034157353 0.302863161848423 173.221979631635 0.447830358378731 -53.7588347181022 
                               0.302814404380066 172.123295426339 0.604130588707164 176.850768020031 0.4862528469383  1.33254829815071 0.0900809256034579 1.38213451146076 
! Gamma         0                11.1079786163439 0                11.1079786163439 0                11.1079786163439 0                11.1079786163439 0                11.1079786163439 0                11.1079786163439 0                11.1079786163439 0                11.1079786163439 0                11.1079786163439 0                11.1079786163439 9.62704272321076E-35 11.1079786163439 0                11.1079786163439 
! Port Impedance         50               0                50               0                50               0                50               0                50               0                50               0                50               0                50               0                50               0                50               0                50               0                50               0                