! Touchstone file exported from HFSS 3D Layout Design 2025.1.0
!        File:           C:/Users/pricewu/Documents/Ansoft/G653-10828-01_RJ_v22.aedt
!        Generated:      09:36:15 AM Apr 27, 2026
!        Design:         G653-10828-01_RJ_set
!        Project:        G653-10828-01_RJ_v22
!        Setup:          Setup1
!        Solution:       Sweep1
!
# GHz S MA R 50.000000
! Terminal data exported
! Port[1] = ANT6_CLB
! Port[2] = ANT6_SLB
! Port[3] = ANT7_CLB
! Port[4] = ANT7_SLB
0.5                            0.17276885250858 173.11042803391  0.957156114697588 -98.9717976433345 0.000107964082652988 109.078172436461 0.000513446697543781 171.788426283975 
                               0.95715611469759 -98.9717976433344 0.17380725719567 177.799868730965 0.000513705575479718 172.172477654935 0.000122896259583358 108.156384914609 
                               0.000107964082652974 109.07817243645  0.0005137055754797 172.172477654937 0.169578662096752 -178.21082558932 0.960050258678244 -92.2881121077723 
                               0.000513446697543795 171.788426283973 0.000122896259583346 108.156384914618 0.960050258678243 -92.2881121077723 0.169712372842004 -177.663059066571 
! Gamma         0                10.4792251097584 0                10.4792251097584 0                10.4792251097584 0                10.4792251097584 
! Port Impedance         50               0                50               0                50               0                50               0                
0.51                           0.17203092640729 171.106964675734 0.956861862800445 -100.908012262999 0.000118513845289576 113.894321044605 0.000523785639595428 169.57921798635  
                               0.956861862800393 -100.908012262999 0.173097116575825 175.953433686396 0.000524099453399378 169.984061968488 0.000133404491440125 112.306153270291 
                               0.000118513845289518 113.894321044596 0.000524099453399357 169.98406196849  0.169579655259039 179.972219713992 0.959660310190777 -94.0931755182951 
                               0.000523785639595444 169.579217986349 0.000133404491440099 112.306153270299 0.959660310190777 -94.0931755182954 0.169717400058233 -179.459189371125 
! Gamma         0                10.6888096119536 0                10.6888096119536 0                10.6888096119536 0                10.6888096119536 
! Port Impedance         50               0                50               0                50               0                50               0                
0.52                           0.171108073011125 169.103848392195 0.956601544838541 -102.844158077468 0.000130492480912139 117.719545144963 0.000533862149102545 167.369172756893 
                               0.956601544838442 -102.844158077468 0.17220242602131 174.113223907081 0.000534249081338255 167.794169342574 0.000145237145734508 115.685183405938 
                               0.000130492480912043 117.71954514496  0.000534249081338232 167.794169342577 0.169424149699527 178.157924988424 0.959298402588986 -95.8977190282084 
                               0.000533862149102563 167.369172756891 0.000145237145734468 115.685183405945 0.959298402588985 -95.8977190282089 0.16956601924966 178.748234180604 
! Gamma         0                10.8983941141487 0                10.8983941141487 0                10.8983941141487 0                10.8983941141487 
! Port Impedance         50               0                50               0                50               0                50               0                
0.53                           0.170001250474763 167.100726668649 0.956374783733174 -104.780373735966 0.000143641263260064 120.69546499365  0.000543664958382682 165.16073107572  
                               0.956374783733034 -104.780373735965 0.17112417429984 172.279328169846 0.000544143232280436 165.605072367315 0.000158188457943557 118.382978007524 
                               0.000143641263259937 120.695464993653 0.000544143232280411 165.605072367318 0.169112377884995 176.346113591042 0.958964690422675 -97.7018502114228 
                               0.000543664958382701 165.160731075719 0.000158188457943505 118.382978007531 0.958964690422673 -97.7018502114234 0.169258468614617 176.959096278535 
! Gamma         0                11.1079786163439 0                11.1079786163439 0                11.1079786163439 0                11.1079786163439 
! Port Impedance         50               0                50               0                50               0                50               0                
0.54                           0.168711566977532 165.097246730421 0.956181058929469 -106.716795686644 0.000157755384825675 122.965959494375 0.000553185467064374 162.956256868295 
                               0.956181058929294 -106.716795686642 0.169863505196473 170.451877851376 0.000553773076979236 163.418979705028 0.00017208777054584 120.496196859409 
                               0.000157755384825523 122.965959494384 0.00055377307697921 163.418979705031 0.168644681920064 174.536619183986 0.958659223589044 -99.5056766335386 
                               0.000553185467064393 162.956256868293 0.000172087770545778 120.496196859417 0.958659223589041 -99.5056766335395 0.168795096617733 175.173297102989 
! Gamma         0                11.3175631185391 0                11.3175631185391 0                11.3175631185391 0                11.3175631185391 
! Port Impedance         50               0                50               0                50               0                50               0                
0.55                           0.167240282356305 163.093054080396 0.956019709221372 -108.653557632954 0.000172675925198359 124.65898216038  0.000562417821577396 160.758017356794 
                               0.956019709221167 -108.653557632952 0.168421719777437 168.631050901383 0.000563132272963179 161.23801786691  0.000186796505670671 122.115715062765 
                               0.000172675925198186 124.658982160396 0.00056313227296315 161.238017866913 0.168021513540611 172.72928567501  0.958381947993735 -101.309305489666 
                               0.000562417821577416 160.758017356793 0.000186796505670602 122.115715062775 0.958381947993732 -101.309305489667 0.168176362046277 173.390752823248 
! Gamma         0                11.5271476207342 0                11.5271476207342 0                11.5271476207342 0                11.5271476207342 
! Port Impedance         50               0                50               0                50               0                50               0                
0.56                           0.165588810103409 161.087790886508 0.955889936026659 -110.590790000633 0.000188279836255575 125.881373091712 0.00057135894006467 158.568164616849 
                               0.955889936026432 -110.590790000631 0.166800279112174 166.817076508697 0.000572217005965976 159.064214323369 0.00020220281101887 123.321272229158 
                               0.000188279836255388 125.881373091734 0.000572217005965947 159.064214323371 0.167243434340469 170.923967262509 0.958132706480001 -103.112843244752 
                               0.00057135894006469 158.568164616847 0.000202202811018794 123.321272229169 0.958132706479996 -103.112843244753 0.167402834307164 171.611396273387 
! Gamma         0                11.7367321229295 0                11.7367321229295 0                11.7367321229295 0                11.7367321229295 
! Port Impedance         50               0                50               0                50               0                50               0                
0.57                           0.163758719698155 159.081094168936 0.955790807109976 -112.528619416843 0.000204470958531298 126.71962515554  0.000580008484389779 156.388719227907 
                               0.955790807109731 -112.52861941684 0.165000807439762 165.010240566745 0.000581025984543181 156.899482301974 0.000218216021119136 124.180296266061 
                               0.000204470958531099 126.719625155565 0.000581025984543151 156.899482301977 0.166311116223845 169.120528580561 0.957911240023827 -104.916395277197 
                               0.000580008484389799 156.388719227905 0.000218216021119054 124.180296266073 0.957911240023821 -104.916395277198 0.166475193958255 169.83517781225  
! Gamma         0                11.9463166251247 0                11.9463166251247 0                11.9463166251247 0                11.9463166251247 
! Port Impedance         50               0                50               0                50               0                50               0                
0.58                           0.161751739237062 157.072593729209 0.955721260752341 -114.467168203039 0.000221172871620102 127.242775453636 0.000588368782763782 154.221556315742 
                               0.955721260752084 -114.467168203034 0.163025095766079 163.210892071314 0.000589560390244425 154.745607555889 0.00023476180185523 124.748686637199 
                               0.000221172871619896 127.242775453665 0.000589560390244394 154.745607555892 0.165225342073743 167.31884494175  0.957717189193359 -106.720065526553 
                               0.000588368782763802 154.22155631574  0.000234761801855144 124.748686637211 0.957717189193352 -106.720065526554 0.165394233465652 168.062066378671 
! Gamma         0                12.1559011273198 0                12.1559011273198 0                12.1559011273198 0                12.1559011273198 
! Port Impedance         50               0                50               0                50               0                50               0                
0.59                           0.15956975832448 155.061909753349 0.955680110365677 -116.406553883152 0.000238323497564833 127.50566358973  0.000596444708076457 152.068394189711 
                               0.955680110365412 -116.406553883147 0.160875105879301 161.41945061609  0.000597823787112809 152.604237307918 0.000251778199743624 125.072331785693 
                               0.000238323497564625 127.505663589762 0.000597823787112777 152.604237307921 0.163987006624595 165.518802677688 0.95755009587144 -108.523956146095 
                               0.000596444708076477 152.068394189709 0.000251778199743536 125.072331785706 0.957550095871433 -108.523956146096 0.164160858176827 166.29205075773  
! Gamma         0                12.365485629515  0                12.365485629515  0                12.365485629515  0                12.365485629515  
! Port Impedance         50               0                50               0                50               0                50               0                
0.6                            0.157214831182353 153.04865000803  0.955666049550797 -118.346888708729 0.000255871119782509 127.551873494775 0.000604243518220833 149.930785680689 
                               0.95566604955053 -118.346888708722 0.158552974774409 159.636415191867 0.000605821995417183 150.476871495303 0.000269212543312996 125.188757847648 
                               0.0002558711197823 127.551873494808 0.000605821995417151 150.476871495306 0.162597117525189 163.72029957951  0.957409405240482 -110.328167161075 
                               0.000604243518220853 149.930785680687 0.000269212543312907 125.188757847661 0.957409405240473 -110.328167161077 0.16277608749768 164.525141079161 
! Gamma         0                12.5750701317102 0                12.5750701317102 0                12.5750701317102 0                12.5750701317102 
! Port Impedance         50               0                50               0                50               0                50               0                
0.61                           0.154689179935284 151.032406531707 0.955677657596808 -120.288279202658 0.000273771467700388 127.416166727265 0.000611774665508778 147.810112193089 
                               0.955677657596542 -120.28827920265 0.156061019482124 157.862374546222 0.000613562935348236 148.364856362052 0.000287019054822498 125.128648101179 
                               0.000273771467700183 127.416166727299 0.000613562935348204 148.364856362056 0.161056796575986 161.923245443045 0.957294468029187 -112.132796133466 
                               0.000611774665508797 147.810112193087 0.00028701905482241 125.128648101192 0.957294468029177 -112.132796133468 0.161241056259956 162.761370575139 
! Gamma         0                12.7846546339053 0                12.7846546339053 0                12.7846546339053 0                12.7846546339053 
! Port Impedance         50               0                50               0                50               0                50               0                
0.62                           0.151995198024925 149.0127517005   0.955713405419091 -122.230825723204 0.000291985578858543 127.126414264426 0.000619049582683808 145.707580400205 
                               0.955713405418829 -122.230825723195 0.153401742305021 156.098019424696 0.000621056446909614 146.269380372599 0.000305157021461898 124.917144458743 
                               0.000291985578858342 127.12641426446  0.000621056446909582 146.269380372602 0.159367281122954 160.127562726158 0.957204543020856 -113.937937834046 
                               0.000619049582683827 145.707580400203 0.00030515702146181 124.917144458757 0.957204543020846 -113.937937834047 0.159557016263989 161.000797631947 
! Gamma         0                12.9942391361005 0                12.9942391361005 0                12.9942391361005 0                12.9942391361005 
! Port Impedance         50               0                50               0                50               0                50               0                
0.63                           0.149135453706262 146.989233519864 0.955771661931853 -124.174622050052 0.000310478221032516 126.705100356091 0.000626081453068036 143.624221439616 
                               0.955771661931598 -124.174622050043 0.15057783647448 154.344157096529 0.000628314092418358 144.19147235576  0.000323589395005112 124.574921375375 
                               0.000310478221032324 126.705100356125 0.000628314092418326 144.191472355763 0.157529925588167 158.333187328912 0.957138799823106 -115.743683922657 
                               0.000626081453068053 143.624221439614 0.000323589395005026 124.574921375389 0.957138799823095 -115.743683922659 0.157725337980412 159.243508178696 
! Gamma         0                13.2038236382957 0                13.2038236382957 0                13.2038236382957 0                13.2038236382957 
! Port Impedance         50               0                50               0                50               0                50               0                
0.64                           0.146112693577646 144.961369955485 0.955850700849744 -126.119754994119 0.000329216716761438 126.170483484287 0.000632884972078678 141.560892406591 
                               0.9558507008495  -126.11975499411 0.147592192256792 152.601728673479 0.000635348947922103 142.132001733545 0.000342281715336475 124.11905461264  
                               0.000329216716761254 126.170483484321 0.000635348947922073 142.132001733549 0.155546203115611 156.54006951087  0.957096321898779 -117.550122637531 
                               0.000632884972078694 141.560892406589 0.000342281715336392 124.119054612653 0.957096321898767 -117.550122637533 0.155747512393415 157.489618466774 
! Gamma         0                13.4134081404908 0                13.4134081404908 0                13.4134081404908 0                13.4134081404908 
! Port Impedance         50               0                50               0                50               0                50               0                
0.65                           0.142929846096623 142.928642067474 0.955948707911108 -128.066304032893 0.000348170058088653 125.53749081768  0.00063947610677685 139.518279899432 
                               0.955948707910877 -128.066304032883 0.144447903557695 150.87182986677  0.000642175389486065 140.09168064643  0.000361201277795278 123.563717023492 
                               0.000348170058088479 125.537490817713 0.000642175389486035 140.091680646434 0.153417707309   154.748174964353 0.957076109857653 -119.357338494549 
                               0.000639476106776865 139.51827989943  0.000361201277795198 123.563717023505 0.95707610985764 -119.357338494551 0.153625152967331 155.739278306623 
! Gamma         0                13.622992642686  0                13.622992642686  0                13.622992642686  0                13.622992642686  
! Port Impedance         50               0                50               0                50               0                50               0                
0.66                           0.139590025035138 140.890485646634 0.956063788513189 -130.014340973084 0.000367308232210514 124.81840854265  0.000645871859336821 137.496905341495 
                               0.956063788512972 -130.014340973074 0.14114827510253 149.15573600565  0.000648808879752574 138.071067755819 0.000380316484382469 122.92073343435  
                               0.000367308232210351 124.818408542682 0.000648808879752544 138.071067755823 0.151146154036816 152.957486067766 0.957077085008235 -121.165411997373 
                               0.000645871859336835 137.496905341493 0.000380316484382393 122.920733434362 0.957077085008221 -121.165411997374 0.151359997717895 153.992674844378 
! Gamma         0                13.8325771448812 0                13.8325771448812 0                13.8325771448812 0                13.8325771448812 
! Port Impedance         50               0                50               0                50               0                50               0                
0.67                           0.136096532830646 138.846280964524 0.956193975746987 -131.963929642374 0.000386601702036543 124.023416787636 0.000652090039418451 135.497131789399 
                               0.956193975746785 -131.963929642363 0.137696830307714 147.454932375819 0.000655265759485749 136.070573485235 0.00039959633443326 122.200022867045 
                               0.000386601702036393 124.023416787666 0.00065526575948572 136.070573485238 0.148733383278414 151.168003349844 0.957098093168417 -122.97441935936 
                               0.000652090039418464 135.497131789397 0.000399596334433189 122.200022867057 0.957098093168403 -122.974419359361 0.148953911369532 152.250036980824 
! Gamma         0                14.0421616470764 0                14.0421616470764 0                14.0421616470764 0                14.0421616470764 
! Port Impedance         50               0                50               0                50               0                50               0                
0.68                           0.132452863794798 136.795340131962 0.956337238816501 -133.915125612008 0.000406021002044764 123.161006348813 0.000658149049455994 133.519171934154 
                               0.956337238816316 -133.915125611997 0.134097320011066 145.771151247936 0.000661563048038853 134.090466453359 0.000419010022066021 121.409951551127 
                               0.000406021002044627 123.161006348842 0.000661563048038824 134.090466453362 0.14618136098384 149.379747203868 0.957137908733148 -124.784432238225 
                               0.000658149049456006 133.519171934152 0.000419010022065953 121.409951551138 0.957137908733133 -124.784432238226 0.146408887580558 150.511640560192 
! Gamma         0                14.2517461492715 0                14.2517461492715 0                14.2517461492715 0                14.2517461492715 
! Port Impedance         50               0                50               0                50               0                50               0                
0.69                           0.12866270714904 134.736891401561 0.956491491823806 -135.867975952002 0.000425536421316799 122.238305335755 0.000664067685901492 131.563097009841 
                               0.956491491823639 -135.867975951992 0.130353732299521 144.106417384252 0.000667718255872744 132.130880853193 0.000438526616401137 120.557615603275 
                               0.000425536421316675 122.238305335782 0.000667718255872717 132.130880853196 0.143492180918934 147.592759901443 0.957195238996422 -126.595517484405 
                               0.000664067685901504 131.563097009839 0.000438526616401074 120.557615603285 0.957195238996407 -126.595517484406 0.143727051219414 148.777814488049 
! Gamma         0                14.4613306514667 0                14.4613306514667 0                14.4613306514667 0                14.4613306514667 
! Port Impedance         50               0                50               0                50               0                50               0                
0.7                            0.124729949867883 132.670059531664 0.95665460289785 -137.822519020634 0.000445117753737918 121.261336901889 0.000669864958528305 129.628846340728 
                               0.9566546028977  -137.822519020623 0.126470303769599 142.463104376867 0.000673749211453931 130.191824540627 0.000458114806944716 119.649068313221 
                               0.000445117753737807 121.261336901915 0.000673749211453905 130.191824540631 0.140668066466615 145.807107968713 0.957268728723937 -128.40773690411 
                               0.000669864958528314 129.628846340726 0.000458114806944657 119.649068313231 0.957268728723921 -128.407736904112 0.140910660677198 147.048947978142 
! Gamma         0                14.6709151536618 0                14.6709151536618 0                14.6709151536618 0                14.6709151536618 
! Port Impedance         50               0                50               0                50               0                50               0                
0.71                           0.120658679326917 130.593841025964 0.956824403641076 -139.778784289865 0.000464734101085279 120.235223989445 0.000675559929046036 127.716237280346 
                               0.956824403640943 -139.778784289855 0.122451532689608 140.844004943543 0.000679673904104951 128.273187610998 0.000477742701244063 118.6895037534   
                               0.000464734101085181 120.23522398947  0.000679673904104927 128.273187611002 0.137711372354716 144.022885005025 0.957356964971575 -130.221147038047 
                               0.000675559929046045 127.716237280344 0.000477742701244009 118.68950375341  0.957356964971559 -130.221147038048 0.137962110204925 145.325499180238 
! Gamma         0                14.880499655857  0                14.880499655857  0                14.880499655857  0                14.880499655857  
! Port Impedance         50               0                50               0                50               0                50               0                
0.72                           0.116453185775849 128.507072637284 0.956998698863954 -141.736792208244 0.000484353718819685 119.164353106518 0.000681171569526176 125.82497532286  
                               0.956998698863838 -141.736792208235 0.118302194718421 139.25241937387  0.000685510343693528 126.374751262024 0.000497377665394471 117.683405863872 
                               0.0004843537188196 119.16435310654  0.000685510343693505 126.374751262028 0.134624586280583 142.240215046321 0.957458482143589 -132.035798956793 
                               0.000681171569526183 125.824975322858 0.000497377665394422 117.683405863881 0.957458482143574 -132.035798956794 0.134883932268684 143.608005508763 
! Gamma         0                15.0900841580522 0                15.0900841580522 0                15.0900841580522 0                15.0900841580522 
! Port Impedance         50               0                50               0                50               0                50               0                
0.73                           0.112117964690088 126.408390917258 0.957175276573404 -143.696554102734 0.000503943897334993 118.052506237294 0.000686718640501669 123.954664196294 
                               0.957175276573304 -143.696554102725 0.114027362096372 137.692267808835 0.000691276437446941 124.496196764291 0.000516986200542044 116.634670151918 
                               0.000503943897334921 118.052506237315 0.000691276437446918 124.496196764295 0.13141033040298 140.459256604605 0.957571767282859 -133.851738073826 
                               0.000686718640501676 123.954664196292 0.000516986200541998 116.634670151926 0.957571767282844 -133.851738073827 0.131678799922365 141.897096080616 
! Gamma         0                15.2996686602473 0                15.2996686602473 0                15.2996686602473 0                15.2996686602473 
! Port Impedance         50               0                50               0                50               0                50               0                
0.74                           0.107657719102024 124.296179716974 0.957351918176895 -145.658072120778 0.000523470873542575 116.902967810386 0.000692219588087631 122.104815777119 
                               0.957351918176811 -145.658072120769 0.10963242759487 136.168234143145 0.000696989883672815 122.637114384796 0.000536533850425983 115.54670358041  
                               0.000523470873542515 116.902967810405 0.000696989883672795 122.6371143848   0.128071362672491 138.680207553273 0.957695265583996 -135.66900397716 
                               0.000692219588087636 122.104815777117 0.000536533850425942 115.546703580417 0.957695265583982 -135.669003977161 0.128349529206707 140.193506787373 
! Gamma         0                15.5092531624425 0                15.5092531624425 0                15.5092531624425 0                15.5092531624425 
! Port Impedance         50               0                50               0                50               0                50               0                
0.75                           0.103077362082516 122.168501256423 0.9575264088598  -147.621339213789 0.000542899769208621 115.718612021988 0.000697692459071356 120.274859695223 
                               0.95752640885973 -147.621339213781 0.105123135045577 134.685952355844 0.00070266808175916 120.797012133759 0.000555985136410066 114.42250700597  
                               0.000542899769208572 115.718612022005 0.000702668081759141 120.797012133762 0.124610577973025 136.903311079398 0.957827386118297 -137.487630280564 
                               0.00069769245907136 120.274859695221 0.000555985136410029 114.422507005977 0.957827386118284 -137.487630280565 0.124899081595839 138.498098682562 
! Gamma         0                15.7188376646377 0                15.7188376646377 0                15.7188376646377 0                15.7188376646377 
! Port Impedance         50               0                50               0                50               0                50               0                
0.76                           0.0983820196456297 120.023004457976 0.957696548089489 -149.58633916304 0.000562194553579628 114.501974587456 0.000703154832629572 118.464152526243 
                               0.957696548089433 -149.586339163033 0.100505619050633 133.252250452269 0.000708328057511467 118.97532422902  0.000575303517491479 113.264743588713 
                               0.00056219455357959 114.501974587471 0.000708328057511448 118.975324229023 0.121031009048968 135.128862993068 0.957966507757704 -139.307644495288 
                               0.000703154832629575 118.464152526241 0.000575303517491446 113.264743588719 0.957966507757691 -139.307644495288 0.121330566529363 136.811880573524 
! Gamma         0                15.9284221668328 0                15.9284221668328 0                15.9284221668328 0                15.9284221668328 
! Port Impedance         50               0                50               0                50               0                50               0                
0.77                           0.0935770345041816 117.856801312951 0.957860160195682 -151.553046648768 0.000581318028637426 113.255312071635 0.000708623767137462 116.671986494039 
                               0.957860160195638 -151.553046648762 0.09578645763482 131.875473646625 0.000713986402656112 117.171419195143 0.000594451373535521 112.075795867552 
                               0.000581318028637398 113.255312071648 0.000713986402656095 117.171419195146 0.117335827195601 133.357220777884 0.958110985282929 -141.129067923186 
                               0.000708623767137464 116.671986494037 0.000594451373535492 112.075795867557 0.958110985282917 -141.129067923186 0.117647244091273 135.136036990796 
! Gamma         0                16.138006669028  0                16.138006669028  0                16.138006669028  0                16.138006669028  
! Port Impedance         50               0                50               0                50               0                50               0                
0.78                           0.0886679713417812 115.666297503449 0.958015104972858 -153.521427363066 0.000600231835896743 111.980651247694 0.000714115760423817 114.89759762926  
                               0.958015104972824 -153.521427363061 0.0909727433517039 130.565918054033 0.000719659227187403 115.384607535293 0.000613390010530969 110.857813629933 
                               0.000600231835896723 111.980651247706 0.000719659227187387 115.384607535296 0.113528342694424 131.58881489609  0.958259155658906 -142.951915572097 