! Touchstone file exported from HFSS 3D Layout Design 2025.1.0
!        File:           C:/Users/pricewu/Documents/Ansoft/G653-10828-01_RJ_v22.aedt
!        Generated:      08:56:32 AM Apr 27, 2026
!        Design:         G653-10828-01_RJ_set
!        Project:        G653-10828-01_RJ_v22
!        Setup:          Setup1
!        Solution:       Sweep1
!
# GHz S MA R 50.000000
! Terminal data exported
! Port[1] = ANT6_CLB
! Port[2] = ANT6_SLB
! Port[3] = ANT7_CLB
! Port[4] = ANT7_SLB
0.5                            0.180970601856641 173.560706065462 0.955331632796614 -98.2790293098708 1.00516754965713E-05 102.84882509743  5.02477586224858E-05 171.336381557946 
                               0.955331632796615 -98.2790293098708 0.182324660567998 178.766580106116 5.02533461599744E-05 171.642589873472 1.26706827215888E-05 101.659897826284 
                               1.00516754965762E-05 102.8488250979   5.02533461601259E-05 171.642589873487 0.177046598397695 -177.428081037835 0.958514584260332 -91.6154172784871 
                               5.02477586225649E-05 171.336381557962 1.26706827216328E-05 101.659897826921 0.958514584260331 -91.6154172784871 0.177047562364797 -177.059740046317 
! Gamma         0                10.4792251097584 0                10.4792251097584 0                10.4792251097584 0                10.4792251097584 
! Port Impedance         50               0                50               0                50               0                50               0                
0.51                           0.179809821389182 171.579899626864 0.955111925894723 -100.198843349687 1.08811396846726E-05 109.371818645946 5.15972976453145E-05 168.797649544671 
                               0.955111925894724 -100.198843349687 0.181203931633075 176.967625206411 5.15155978572477E-05 169.204422176974 1.35041755326669E-05 106.646262908879 
                               1.08811396847122E-05 109.371818646495 5.15155978573669E-05 169.204422177006 0.176663863119638 -179.207793353284 0.958185583608881 -93.4044327227506 
                               5.1597297645446E-05 168.797649544668 1.35041755327303E-05 106.646262909411 0.958185583608881 -93.4044327227504 0.176665957871627 -178.82431625574 
! Gamma         1.36608530464497E-41 10.6888096119536 0                10.6888096119536 0                10.6888096119536 0                10.6888096119536 
! Port Impedance         50               0                50               0                50               0                50               0                
0.52                           0.178441645162719 169.598930467644 0.954930881409331 -102.118942214534 1.19266702059317E-05 114.863944649524 5.28518530723021E-05 166.248703879263 
                               0.954930881409331 -102.118942214534 0.179876667311483 175.176024504751 5.27060441921854E-05 166.75713616403  1.4519264958104E-05 111.00599489457  
                               1.19266702060089E-05 114.863944650077 5.27060441922775E-05 166.757136164082 0.176103962497714 179.015549836492 0.957889351887615 -95.1931799976615 
                               5.2851853072478E-05 166.248703879236 1.45192649581821E-05 111.005994894999 0.957889351887616 -95.1931799976611 0.176107309852506 179.414867670773 
! Gamma         2.65767828390975E-41 10.8983941141487 0                10.8983941141487 0                10.8983941141487 0                10.8983941141487 
! Port Impedance         50               0                50               0                50               0                50               0                
0.53                           0.176867440251942 167.617431296063 0.954787695370252 -104.039486788631 1.3158602047502E-05 119.331987239631 5.40106030294145E-05 163.704146518177 
                               0.954787695370252 -104.039486788632 0.178344302314643 173.392016456109 5.38232564065563E-05 164.310988952833 1.56988783365161E-05 114.715348915948 
                               1.31586020476165E-05 119.33198724014  5.38232564066263E-05 164.310988952903 0.175367468440533 177.241812983846 0.957625762061875 -96.9817882777081 
                               5.40106030296265E-05 163.704146518125 1.56988783366046E-05 114.715348916283 0.957625762061878 -96.9817882777075 0.175372199433766 177.657726967765 
! Gamma         3.87201124079727E-41 11.1079786163439 0                11.1079786163439 0                11.1079786163439 0                11.1079786163439 
! Port Impedance         50               0                50               0                50               0                50               0                
0.54                           0.175088753657868 165.635033297291 0.954681394946579 -105.960633942822 1.45491801170352E-05 122.872475647685 5.50751118393838E-05 161.176455635013 
                               0.954681394946577 -105.960633942822 0.176608460834775 171.615902074852 5.4867347995493E-05 161.875052260318 1.70254141043302E-05 117.79909848321  
                               1.45491801171843E-05 122.872475648123 5.48673479955458E-05 161.875052260406 0.174455084179396 175.47087634648  0.957394558339064 -98.7703856229492 
                               5.50751118396237E-05 161.176455634934 1.70254141044255E-05 117.799098483463 0.957394558339067 -98.7703856229485 0.174461339770767 175.904197324619 
! Gamma         5.00652523671754E-41 11.3175631185391 0                11.3175631185391 0                11.3175631185391 0                11.3175631185391 
! Port Impedance         50               0                50               0                50               0                50               0                
0.55                           0.173107315375838 163.651364447441 0.954610842922496 -107.88253588056 1.60747063904535E-05 125.615416419957 5.60489420953893E-05 158.675975287606 
                               0.954610842922493 -107.882535880561 0.174670960931218 169.848052078317 5.58398048630413E-05 159.457164616197 1.84822898372114E-05 120.309524866839 
                               1.60747063906334E-05 125.615416420315 5.58398048630812E-05 159.457164616301 0.173367645016164 173.702636731437 0.95719535785798 -100.55909851566 
                               5.60489420956492E-05 158.675975287501 1.84822898373104E-05 120.309524867023 0.957195357857985 -100.559098515659 0.173375576872635 174.154236179204 
! Gamma         6.05889041590423E-41 11.5271476207342 0                11.5271476207342 0                11.5271476207342 0                11.5271476207342 
! Port Impedance         50               0                50               0                50               0                50               0                
0.56                           0.17092504189    161.666047572398 0.954574742727873 -109.805339499895 1.77158259183607E-05 127.691350843368 5.69372274156623E-05 156.210990538165 
                               0.954574742727869 -109.805339499896 0.172533819562829 168.088915268298 5.67432799216361E-05 157.063928279709 2.00546563534336E-05 122.31034422224  
                               1.7715825918567E-05 127.691350843645 5.67432799216669E-05 157.063928279828 0.172106119396294 171.937008428753 0.957027652728126 -102.348051402959 
                               5.6937227415935E-05 156.210990538036 2.00546563535339E-05 122.310344222369 0.957027652728133 -102.348051402958 0.172115890763212 172.4078242801   
! Gamma         7.02702312797841E-41 11.7367321229295 0                11.7367321229295 0                11.7367321229295 0                11.7367321229295 
! Port Impedance         50               0                50               0                50               0                50               0                
0.57                           0.168544040041959 159.678698078956 0.954571644027548 -111.729185773448 1.94569832329069E-05 129.216614454553 5.77462447542895E-05 153.787868009245 
                               0.954571644027543 -111.729185773449 0.170199258258964 166.339028380559 5.75813700225066E-05 154.700744625837 2.17295653219778E-05 123.866510938723 
                               1.94569832331351E-05 129.216614454754 5.75813700225316E-05 154.700744625967 0.170671610289787 170.173924347928 0.956890812418087 -104.13736624649 
                               5.77462447545688E-05 153.787868009094 2.17295653220776E-05 123.866510938808 0.956890812418095 -104.137366246489 0.170683396962857 170.66496754415  
! Gamma         7.90907718747289E-41 11.9463166251247 0                11.9463166251247 0                11.9463166251247 0                11.9463166251247 
! Port Impedance         50               0                50               0                50               0                50               0                
0.58                           0.16596661121644 157.688921271502 0.954599948873332 -113.654209148471 2.12856543589185E-05 130.289037582781 5.84830162107131E-05 151.411241005303 
                               0.954599948873326 -113.654209148472 0.167669709427242 164.599027690166 5.8358391143147E-05 152.371880311099 2.34958442369175E-05 125.038720355489 
                               2.12856543591642E-05 130.289037582914 5.8358391143169E-05 152.37188031124  0.169065356859778 168.413337376022 0.956784086492802 -105.927162080269 
                               5.84830162109934E-05 151.411241005132 2.34958442370155E-05 125.03872035554  0.956784086492811 -105.927162080268 0.169079348273149 168.925699244462 
! Gamma         8.70346966879991E-41 12.1559011273198 0                12.1559011273198 0                12.1559011273198 0                12.1559011273198 
! Port Impedance         50               0                50               0                50               0                50               0                
0.59                           0.163195255782527 155.696309148706 0.954657918422324 -115.580536969139 2.31916218809343E-05 130.988533700213 5.91549601494526E-05 149.084219776986 
                               0.954657918422316 -115.58053696914 0.164947823305509 162.869662733368 5.9079164648184E-05 150.080556008948 2.53438482946024E-05 125.881013427103 
                               2.31916218811933E-05 130.988533700287 5.90791646482049E-05 150.080556009096 0.167288736395714 166.655221982684 0.956706607700076 -107.717554577816 
                               5.91549601497294E-05 149.084219776798 2.53438482946974E-05 125.881013427127 0.956706607700086 -107.717554577815 0.167305136844176 167.19008257384  
! Gamma         9.40888071446539E-41 12.365485629515  0                12.365485629515  0                12.365485629515  0                12.365485629515  
! Port Impedance         50               0                50               0                50               0                50               0                
0.6                            0.160232677725276 153.700436550071 0.954743680224158 -117.508288923311 2.51663781089933E-05 131.379503188828 5.97696019231535E-05 146.808610449817 
                               0.954743680224149 -117.508288923312 0.162036475578836 161.151812599815 5.97488238370263E-05 147.829049767516 2.72651842438764E-05 126.440178695879 
                               2.51663781092615E-05 131.37950318885  5.97488238370479E-05 147.829049767669 0.165343266485331 164.899576105142 0.956657395407044 -109.50865562972 
                               5.9769601923423E-05 146.808610449616 2.72651842439678E-05 126.440178695882 0.956657395407056 -109.508655629719 0.165362296502015 165.458213640512 
! Gamma         1.00242650135254E-40 12.5750701317102 0                12.5750701317102 0                12.5750701317102 0                12.5750701317102 
! Port Impedance         50               0                50               0                50               0                50               0                
0.61                           0.157081789399426 151.700856489806 0.954855236078251 -119.437576516094 2.72026626620322E-05 131.513599725281 6.03343466962377E-05 144.58512979191  
                               0.954855236078241 -119.437576516096 0.158938775701707 159.446505368582 6.0372646441672E-05 145.618807871578 2.92524517760301E-05 126.756078140889 
                               2.72026626623058E-05 131.513599725261 6.03726464416953E-05 145.618807871734 0.163230607397203 163.146423355483 0.95663535938747 -111.300572932838 
                               6.0334346696497E-05 144.5851297917   2.92524517761172E-05 126.756078140876 0.956635359387483 -111.300572932837 0.163252505312285 163.730224967499 
! Gamma         1.05488584644721E-40 12.7846546339053 0                12.7846546339053 0                12.7846546339053 0                12.7846546339053 
! Port Impedance         50               0                50               0                50               0                50               0                
0.62                           0.153745716334811 149.6970944727   0.954990470459951 -121.368502572594 2.92941140936836E-05 131.432269826298 6.08563112396299E-05 142.41360672065  
                               0.95499047045994 -121.368502572595 0.155658075992404 157.754941416617 6.09559156201649E-05 143.450557258173 3.12990198866474E-05 126.862376520497 
                               2.9294114093959E-05 131.432269826243 6.09559156201907E-05 143.45055725833  0.160952564643343 161.395815603943 0.956639303960684 -113.093409592341 
                               6.08563112398768E-05 142.413606720433 3.12990198867299E-05 126.862376520472 0.956639303960698 -113.093409592339 0.160977588354258 162.006289584837 
! Gamma         1.09821892030408E-40 12.9942391361005 0                12.9942391361005 0                12.9942391361005 0                12.9942391361005 
! Port Impedance         50               0                50               0                50               0                50               0                
0.63                           0.15022780202203 147.688641529829 0.955147159511721 -123.301160772303 3.14350104296745E-05 131.168883863148 6.13422080610676E-05 140.293164816623 
                               0.955147159511709 -123.301160772305 0.152197981603668 156.078521531019 6.15038095111277E-05 141.324414839251 3.3398841472734E-05 126.787390481159 
                               3.14350104299486E-05 131.168883863065 6.15038095111564E-05 141.324414839408 0.158511091689413 159.647836006064 0.95666793248266 -114.887263737859 
                               6.13422080613006E-05 140.293164816401 3.33988414728117E-05 126.787390481126 0.956667932482675 -114.887263737858 0.158539520679357 160.286625826132 
! Gamma         1.13240758763841E-40 13.2038236382957 0                13.2038236382957 0                13.2038236382957 0                13.2038236382957 
! Port Impedance         50               0                50               0                50               0                50               0                
0.64                           0.146531612607359 145.674945635806 0.955322980592102 -125.235635217649 3.36200764242325E-05 130.750449557871 6.17982735111989E-05 138.222382893969 
                               0.955322980592089 -125.235635217651 0.148562361524512 154.4188810238   6.20213176318345E-05 139.239990368368 3.55463031986502E-05 126.554916207599 
                               3.36200764245023E-05 130.750449557765 6.2021317631866E-05 139.239990368522 0.155908292778509 157.902602559296 0.956719852189178 -116.682228155043 
                               6.1798273511417E-05 138.222382893745 3.55463031987231E-05 126.55491620756  0.956719852189194 -116.682228155042 0.155940430427599 158.571502968982 
! Gamma         1.15746432558302E-40 13.4134081404908 0                13.4134081404908 0                13.4134081404908 0                13.4134081404908 
! Port Impedance         50               0                50               0                50               0                50               0                
0.65                           0.142660941428093 143.655401066391 0.955515522371245 -127.172000039219 3.5844340079882E-05 130.19896113923  6.22302311080906E-05 136.199432796764 
                               0.955515522371231 -127.172000039221 0.144755360837473 152.777931403003 6.25131812719954E-05 137.1964806469   3.77361055253749E-05 126.184974167562 
                               3.58443400801448E-05 130.198961139108 6.25131812720299E-05 137.196480647051 0.153146425833328 156.160272297104 0.956793579390155 -118.478389933835 
                               6.22302311082932E-05 136.199432796541 3.77361055254428E-05 126.184974167519 0.956793579390172 -118.478389933834 0.15318260207646 156.861247894382 
! Gamma         1.17343227195666E-40 13.622992642686  0                13.622992642686  0                13.622992642686  0                13.622992642686  
! Port Impedance         50               0                50               0                50               0                50               0                
0.66                           0.138619813324197 141.629335115024 0.955722295457206 -129.110319040232 3.81030253993426E-05 129.532451530914 6.26432818020211E-05 134.222195083326 
                               0.955722295457192 -129.110319040234 0.140781414550711 151.157911630549 6.29838544533273E-05 135.192753840612 3.99631675754829E-05 125.694451427782 
                               3.81030253995962E-05 129.53245153078  6.29838544533643E-05 135.192753840758 0.150227905400985 154.421046257374 0.95688754501315 -120.275830134843 
                               6.26432818022079E-05 134.222195083106 3.9963167575546E-05 125.694451427736 0.956887545013167 -120.275830134842 0.150268479798376 155.156252985769 
! Gamma         1.18038583420568E-40 13.8325771448812 0                13.8325771448812 0                13.8325771448812 0                13.8325771448812 
! Port Impedance         50               0                50               0                50               0                50               0                
0.67                           0.134412488669904 139.59599139332  0.955940743532175 -131.05064538278 4.03914718832575E-05 128.765810453404 6.30421138796417E-05 132.288354215138 
                               0.95594074353216 -131.050645382781 0.136645263455113 149.561451642307 6.34374818627887E-05 133.227423449275 4.22225520688187E-05 125.097642481175 
                               4.03914718834999E-05 128.765810453262 6.34374818628279E-05 133.227423449416 0.147155305604819 152.685175398996 0.957000100492603 -122.074623475181 
                               6.3042113879813E-05 132.288354214921 4.22225520688771E-05 125.097642481128 0.957000100492621 -122.07462347518 0.147200670906349 153.456985547207 
! Gamma         1.1784308867217E-40 14.0421616470764 0                14.0421616470764 0                14.0421616470764 0                14.0421616470764 
! Port Impedance         50               0                50               0                50               0                50               0                
0.68                           0.130043467081027 137.554508670714 0.956168254972177 -132.993021318351 4.27050739482683E-05 127.911421050808 6.34309263978467E-05 130.39547539714  
                               0.956168254972162 -132.993021318353 0.132351972637506 147.991651688263 6.38778902984145E-05 131.298912046355 4.4509406362344E-05 124.406698400514 
                               4.27050739484977E-05 127.911421050661 6.38778902984553E-05 131.29891204649  0.1439313630686  150.952967688773 0.957129523999759 -123.874838035192 
                               6.34309263980028E-05 130.39547539693  4.45094063623978E-05 124.406698400466 0.957129523999777 -123.874838035191 0.143981949372338 151.763999096645 
! Gamma         1.16770551209241E-40 14.2517461492715 0                14.2517461492715 0                14.2517461492715 0                14.2517461492715 
! Port Impedance         50               0                50               0                50               0                50               0                
0.69                           0.125517490771692 135.503893827103 0.956402174917867 -134.937477965063 4.50392353756136E-05 126.979656875206 6.38134612514893E-05 128.54106543331  
                               0.956402174917852 -134.937477965064 0.12790695353359 146.452182270033 6.43085904807412E-05 129.405505304356 4.68189164180957E-05 123.631997048729 
                               4.50392353758286E-05 126.979656875059 6.43085904807831E-05 129.405505304484 0.140558979780602 149.224796644222 0.957274027006192 -125.676534987466 
                               6.38134612516306E-05 128.541065433107 4.6818916418145E-05 123.631997048681 0.957274027006209 -125.676534987465 0.140615259410469 150.077946990613 
! Gamma         1.14837974276067E-40 14.4613306514667 0                14.4613306514667 0                14.4613306514667 0                14.4613306514667 
! Port Impedance         50               0                50               0                50               0                50               0                
0.7                            0.120839547560561 133.442986946094 0.956639817757667 -136.884035133927 4.73893352876453E-05 125.979271642994 6.41930401006205E-05 126.722619963493 
                               0.956639817757652 -136.884035133928 0.123315990759963 144.947411157438 6.47327864925388E-05 127.545397073711 4.91462712123854E-05 122.782447114192 
                               4.73893352878448E-05 125.979271642848 6.47327864925815E-05 127.545397073833 0.137041225868758 147.501111701898 0.957431761171694 -127.479768349586 
                               6.41930401007475E-05 126.722619963297 4.91462712124306E-05 122.782447114145 0.95743176117171 -127.479768349585 0.137103719127919 148.399598969582 
! Gamma         1.12065645171135E-40 14.6709151536618 0                14.6709151536618 0                14.6709151536618 0                14.6709151536618 
! Port Impedance         50               0                50               0                50               0                50               0                
0.71                           0.116014873564964 131.37041578218  0.956878479977988 -138.832701206352 4.97507031373422E-05 124.917706556649 6.45726033545154E-05 124.937659313402 
                               0.956878479977973 -138.832701206353 0.118585275471729 143.48256637608  6.51533905511855E-05 125.716726420276 5.14866356640524E-05 121.865737532281 
                               4.97507031375254E-05 124.917706556508 6.51533905512282E-05 125.716726420392 0.133381342263357 145.782450893252 0.957600825544788 -129.284584762001 
                               6.45726033546289E-05 124.937659313215 5.14866356640936E-05 121.865737532235 0.957600825544804 -129.284584762   0.133450624261265 146.729861390775 
! Gamma         1.08477048088247E-40 14.880499655857  0                14.880499655857  0                14.880499655857  0                14.880499655857  
! Port Impedance         50               0                50               0                50               0                50               0                
0.72                           0.111048955677752 129.284535661162 0.957115453328536 -140.783473064891 5.21186008975675E-05 123.801334048253 6.4954749212244E-05 123.18375497887  
                               0.957115453328522 -140.783473064892 0.113721447724494 142.063947509834 6.55730412487925E-05 123.917607577791 5.38351306061644E-05 120.88854223099  
                               5.21186008977337E-05 123.801334048118 6.55730412488348E-05 123.9176075779   0.129582743232144 144.069456462156 0.957779274061418 -131.091023292442 
                               6.49547492123449E-05 123.183754978692 5.38351306062019E-05 120.888542230946 0.957779274061433 -131.091023292441 0.129659452037023 145.06980215477  
! Gamma         1.04098957830944E-40 15.0900841580522 0                15.0900841580522 0                15.0900841580522 0                15.0900841580522 
! Port Impedance         50               0                50               0                50               0                50               0                
0.73                           0.105947534005395 127.18334910661  0.957348038244039 -142.736336079046 5.44882111350123E-05 122.63565226614  6.53417713974891E-05 121.458548520165 
                               0.957348038244025 -142.736336079047 0.108731651391928 140.699202671209 6.59941237892962E-05 122.146153762382 5.61868186708695E-05 119.856688495936 
                               5.44882111351614E-05 122.635652266012 6.59941237893375E-05 122.146153762483 0.125649018783809 142.362894265774 0.95796512332449 -132.899115268223 
                               6.5341771397578E-05 121.458548519998 5.61868186709036E-05 119.856688495894 0.957965123324505 -132.899115268222 0.125733865223945 143.420681658766 
! Gamma         9.89613817139043E-41 15.2996686602473 0                15.2996686602473 0                15.2996686602473 0                15.2996686602473 
! Port Impedance         50               0                50               0                50               0                50               0                
0.74                           0.100716604572722 125.064396774427 0.957573557457086 -144.691264147691 5.68546300072232E-05 121.425441196282 6.57356947159437E-05 119.759764390738 
                               0.957573557457073 -144.691264147692 0.103623606785433 139.397695864111 6.64187910960519E-05 120.400495746909 5.85366952197337E-05 118.775295760636 
                               5.6854630007355E-05 121.425441196164 6.64187910960919E-05 120.400495747004 0.121583936952314 140.663678087415 0.958156360643833 -134.708884137756 
                               6.57356947160214E-05 119.75976439058  5.85366952197645E-05 118.775295760595 0.958156360643847 -134.708884137755 0.121677716485119 141.783991559604 
! Gamma         9.30975465234415E-41 15.5092531624425 0                15.5092531624425 0                15.5092531624425 0                15.5092531624425 
! Port Impedance         50               0                50               0                50               0                50               0                
0.75                           0.0953624227959436 122.924607027235 0.957789369730457 -146.648219799366 5.92128644711341E-05 120.17488872676  6.61383079295082E-05 118.08521798463  
                               0.957789369730444 -146.648219799366 0.0984057085361461 138.171000471915 6.6848984953661E-05 118.678796019705 6.08796836487755E-05 117.648890349556 
                               5.9212864471249E-05 120.174888726652 6.68489849536991E-05 118.678796019793 0.117391445997275 138.972900391261 0.958350952312965 -136.520345362531 
                               6.61383079295756E-05 118.085217984483 6.08796836488034E-05 117.648890349517 0.958350952312978 -136.52034536253 0.117495053194255 140.161503757385 
! Gamma         8.65438249380888E-41 15.7188376646377 0                15.7188376646377 0                15.7188376646377 0                15.7188376646377 
! Port Impedance         50               0                50               0                50               0                50               0                
0.76                           0.0898915085374748 120.760084654109 0.957992883631311 -148.607154351406 6.15578331671704E-05 118.887693019237 6.65511937060238E-05 116.432819967875 
                               0.957992883631299 -148.607154351406 0.0930871600180211 137.033571296377 6.7286456585131E-05 116.979259266862 6.32106345427043E-05 116.48150063776  
                               6.15578331672687E-05 118.887693019141 6.72864565851668E-05 116.979259266944 0.113075676587994 137.29187161749  0.958546852095724 -138.333506340724 
                               6.65511937060816E-05 116.432819967738 6.32106345427294E-05 116.481500637723 0.958546852095735 -138.333506340724 0.11319012296038 138.555332897668 
! Gamma         7.93398073420649E-41 15.9284221668328 0                15.9284221668328 0                15.9284221668328 0                15.9284221668328 
! Port Impedance         50               0                50               0                50               0                50               0                
0.77                           0.084310654066058 118.56580798213  0.95818157126421 -150.56800812847 6.38843705646646E-05 117.567146085563 6.69757555880638E-05 114.800577766016 
                               0.9581815712642  -150.568008128471 0.0876781614334958 136.003673286854 6.77327862546023E-05 115.300139828114 6.55243282579728E-05 115.276736222249 
                               6.38843705647472E-05 117.567146085478 6.77327862546357E-05 115.30013982819  0.108640944085096 135.6221709335   0.958742009892496 -140.148366363519 
                               6.69757555881126E-05 114.800577765889 6.55243282579953E-05 115.276736222214 0.958742009892506 -140.148366363519 0.108767380219684 136.968016960434 
! Gamma         7.15281492897652E-41 16.138006669028  0                16.138006669028  0                16.138006669028  0                16.138006669028  
! Port Impedance         50               0                50               0                50               0                50               0                
0.78                           0.0786269371072547 116.335184491347 0.958352981875153 -152.530710740665 6.61872340365523E-05 116.216202359315 6.74132420481145E-05 113.186594913469 
                               0.958352981875143 -152.530710740665 0.082190178056321 135.104685339095 6.81894016329072E-05 113.639746689037 6.78154805881675E-05 114.037853998487 
                               6.618723403662E-05 116.216202359243 6.81894016329378E-05 113.639746689108 0.10409175110072 133.965712549662 0.958934380552426 -141.964916605091 