! Touchstone file exported from HFSS 3D Layout Design 2023.2.0
!        File:           C:/Users/arajwardan/Documents/Ansoft/ASK5/RJ/RJ_P1_175um.aedt
!        Generated:      11:38:55 PM  May 19, 2026
!        Design:         G653-10828-01_175um
!        Project:        RJ_P1_175um
!        Setup:          Setup1
!        Solution:       Sweep1
!
# GHz S MA R 50.000000
! Terminal data exported
! Port[1] = J25094.1.ANT2_RF_Z50
! Port[2] = J25094.4.ANT7_RF_Z50_SLB
! Port[3] = J25094.5.ANT0_RF_Z50
! Port[4] = J25094.8.ANT6_RF_Z50_SLB
! Port[5] = J25095.1.ANT0_RF_Z50
! Port[6] = J25095.4.ANT6_RF_Z50_CLB
! Port[7] = J25095.5.ANT2_RF_Z50
! Port[8] = J25095.8.ANT7_RF_Z50_CLB
0.5                            0.0139661308237213 -93.2183264839013 3.33330807235976E-05 20.2166783984782 1.3922076225567E-05 19.9619693492326 1.36791638082272E-06 24.5333200312233 
                               0.00017021011428205 -178.448261394735 1.78005910737258E-05 179.160718848221 0.977653022348977 -82.3509380790964 0.000239759670649168 -174.983566478376 
                               3.33330807235976E-05 20.216678398478  0.0137805763111323 -90.6063091613573 1.67106819788069E-06 30.8978559347989 5.33230631322647E-06 8.24795727763918 
                               1.90506205872584E-05 179.189876773768 8.60924401925032E-05 -179.410821850076 0.000239757598133779 -174.993218329592 0.977788183171889 -81.9506433658664 
                               1.3922076225567E-05 19.9619693492325 1.6710681978807E-06 30.8978559347993 0.0135163573235148 -89.7035410402161 6.22438090450512E-06 27.4546882542067 
                               0.976041949798194 -88.3043208867589 0.000184688790615516 179.168902858411 0.000170222908868835 -178.444898608002 1.90592743142804E-05 179.306820637316 
                               1.36791638082272E-06 24.5333200312233 5.33230631322647E-06 8.24795727763981 6.22438090450513E-06 27.4546882542069 0.0134424209441648 -91.1029374553068 
                               0.00018469245020549 179.163016706914 0.976161698119674 -87.9088283097036 1.78007717576264E-05 179.171645233169 8.6091586527973E-05 -179.396554448362 
                               0.00017021011428205 -178.448261394735 1.90506205872584E-05 179.189876773768 0.976041949798194 -88.3043208867589 0.00018469245020549 179.163016706914 
                               0.0130844001262175 -89.8334309706669 8.28796944484941E-06 47.4567182667862 1.35960088449964E-05 15.9739335802652 1.33338798104846E-06 1.49753550116243 
                               1.78005910737258E-05 179.160718848221 8.60924401925032E-05 -179.410821850076 0.000184688790615516 179.168902858411 0.976161698119675 -87.9088283097036 
                               8.28796944484955E-06 47.4567182667872 0.0131774671821619 -91.165975407139 1.297350008172E-06 12.9608048549536 5.92397256389051E-06 28.3356860354152 
                               0.977653022348977 -82.3509380790964 0.000239757598133779 -174.993218329592 0.000170222908868835 -178.444898608002 1.78007717576264E-05 179.171645233169 
                               1.35960088449964E-05 15.9739335802651 1.297350008172E-06 12.9608048549532 0.0128794092739665 -94.2344278496993 3.18727868284759E-05 8.58213285321899 
                               0.000239759670649168 -174.983566478376 0.977788183171889 -81.9506433658664 1.90592743142804E-05 179.306820637316 8.6091586527973E-05 -179.396554448362 
                               1.33338798104846E-06 1.4975355011627  5.92397256389052E-06 28.3356860354152 3.18727868284759E-05 8.58213285321912 0.0128193097091343 -91.3480459337103 
! Gamma         0                10.4792251097584 0                10.4792251097584 0                10.4792251097584 0                10.4792251097584 0                10.4792251097584 0                10.4792251097584 0                10.4792251097584 0                10.4792251097584 
! Port Impedance         50               0                50               0                50               0                50               0                50               0                50               0                50               0                50               0                
0.55                           0.0134875089847702 -98.8735322488164 1.04025369003689E-05 99.1282501316244 1.4014301811325E-05 151.627890774012 1.67840496432815E-06 147.922368775158 
                               0.000186622579764594 173.169641394896 1.94783926406105E-05 170.875573739724 0.976374602609337 -90.543832125584 0.000263092514492742 176.942404694521 
                               1.04025369003688E-05 99.1282501316254 0.013333490446418 -96.2089189684114 1.82695112663635E-06 138.671565829989 8.41291325413324E-06 166.875091914716 
                               2.08482798597783E-05 170.903314187316 9.42742084125966E-05 172.29533814328  0.00026309139868242 176.932814104396 0.976518342949344 -90.1038493046472 
                               1.40143018113252E-05 151.627890774013 1.82695112663639E-06 138.67156582999  0.0128927559472436 -94.1904078814846 2.53141704274676E-05 162.310677523026 
                               0.974667962482851 -97.0897442666524 0.000202606399310636 170.487707459492 0.000186627269887931 173.171703296211 2.08572948854569E-05 171.029056483866 
                               1.67840496432808E-06 147.922368775157 8.41291325413321E-06 166.875091914715 2.53141704274671E-05 162.310677523027 0.0128063506862087 -95.2439885724138 
                               0.000202608096025659 170.481525491018 0.974795989895369 -96.6550055852251 1.94771268638422E-05 170.886651914002 9.42686395364672E-05 172.309973391498 
                               0.000186622579764593 173.169641394896 2.08482798597784E-05 170.903314187316 0.97466796248285 -97.0897442666523 0.00020260809602566 170.481525491018 
                               0.0124127131925335 -94.1836039178644 2.60155137014899E-05 154.5797863902   1.3688040326145E-05 155.587149710046 1.63562572378491E-06 168.32457980391  
                               1.94783926406105E-05 170.875573739724 9.42742084125965E-05 172.29533814328  0.000202606399310636 170.487707459492 0.97479598989537 -96.6550055852252 
                               2.601551370149E-05 154.5797863902   0.0124942343407448 -95.2080662215192 1.55604837740676E-06 157.945674418308 9.03239765839332E-06 151.15209549693  
                               0.976374602609337 -90.543832125584 0.00026309139868242 176.932814104396 0.000186627269887931 173.171703296211 1.94771268638422E-05 170.886651914002 
                               1.3688040326145E-05 155.587149710045 1.55604837740676E-06 157.945674418308 0.0122213586637936 -99.8567885589569 3.78181274910494E-06 128.239736052679 
                               0.000263092514492742 176.942404694521 0.976518342949345 -90.1038493046474 2.08572948854568E-05 171.029056483866 9.42686395364672E-05 172.309973391498 
                               1.63562572378492E-06 168.32457980391  9.03239765839333E-06 151.15209549693  3.78181274910479E-06 128.239736052679 0.0122091017030205 -96.8782038740382 
! Gamma         0                11.5271476207343 0                11.5271476207343 0                11.5271476207343 0                11.5271476207343 0                11.5271476207343 0                11.5271476207343 0                11.5271476207343 0                11.5271476207343 
! Port Impedance         50               0                50               0                50               0                50               0                50               0                50               0                50               0                50               0                
0.6                            0.0128660423375646 -103.366059891078 4.45740112801513E-05 154.094276887694 4.41568147170945E-05 157.319725565062 4.83834562998027E-06 154.285365960806 
                               0.00020285735033136 164.770449397823 2.11349769167331E-05 162.561689020627 0.975086205537595 -98.7300090937155 0.00028623159925139 168.84223994184  
                               4.45740112801514E-05 154.094276887694 0.0127558533563863 -100.696764878851 5.11447094602206E-06 150.898066455346 2.43460273595247E-05 162.135581478687 
                               2.26240747980997E-05 162.587306697295 0.000102356231134547 163.980953642812 0.000286228860723338 168.831816467977 0.975238372181027 -98.2503938888908 
                               4.41568147170949E-05 157.319725565062 5.1144709460221E-06 150.898066455345 0.012208628121145 -97.1171056558066 6.0533813851833E-05 157.9016987632   
                               0.973288431522595 -105.867796870622 0.000220337360626762 161.794059221862 0.000202848476889567 164.77153304302  2.26330933887196E-05 162.721962722713 
                               4.83834562998018E-06 154.285365960806 2.43460273595244E-05 162.135581478687 6.05338138518331E-05 157.9016987632   0.0121262560289638 -97.6867174908996 
                               0.000220337247792302 161.788045381025 0.973423347571362 -105.393773050984 2.11315411513581E-05 162.57365086395  0.000102343408506407 163.996507703115 
                               0.00020285735033136 164.770449397823 2.26240747980997E-05 162.587306697294 0.973288431522595 -105.867796870622 0.000220337247792302 161.788045381025 
                               0.0116943948344183 -96.861705942638 6.08619652477296E-05 154.39293639596  4.40207159803204E-05 158.536838102446 5.09311363684472E-06 161.673942118107 
                               2.11349769167331E-05 162.561689020627 0.000102356231134547 163.980953642812 0.000220337360626762 161.794059221862 0.973423347571362 -105.393773050984 
                               6.08619652477297E-05 154.39293639596  0.0117691630760601 -97.4511314412739 4.76809527685711E-06 158.145753626382 2.4669289103501E-05 155.360521788913 
                               0.975086205537596 -98.7300090937156 0.000286228860723336 168.831816467977 0.000202848476889567 164.77153304302  2.11315411513581E-05 162.57365086395  
                               4.40207159803198E-05 158.536838102446 4.76809527685708E-06 158.145753626382 0.0114212680141607 -104.102328243301 4.34759096567002E-05 164.005891874509 
                               0.00028623159925139 168.84223994184  0.975238372181027 -98.2503938888909 2.26330933887196E-05 162.721962722713 0.000102343408506407 163.996507703115 
                               5.09311363684472E-06 161.673942118107 2.46692891035011E-05 155.360521788913 4.34759096567004E-05 164.005891874509 0.0114685140371069 -101.097184785278 
! Gamma         0                12.5750701317101 0                12.5750701317101 0                12.5750701317101 0                12.5750701317101 0                12.5750701317101 0                12.5750701317101 0                12.5750701317101 0                12.5750701317101 
! Port Impedance         50               0                50               0                50               0                50               0                50               0                50               0                50               0                50               0                
0.65                           0.0121502590996329 -106.424644011274 9.04443074084426E-05 153.013372709735 7.84722779205182E-05 151.935296101061 8.43389476964074E-06 149.446204968462 
                               0.000218909000382544 156.366961729655 2.27702730550454E-05 154.233164894469 0.973799543583132 -106.90991745156 0.000309147083246613 160.729984897901 
                               9.04443074084427E-05 153.013372709735 0.0120929673731945 -103.824094280536 8.93737830471076E-06 147.484004386659 4.21838128199168E-05 154.778933762757 
                               2.43779376346209E-05 154.255404087084 0.000110338734938376 155.659456287503 0.000309140027316221 160.718598928986 0.973959821902249 -106.390711573085 
                               7.84722779205187E-05 151.93529610106  8.93737830471077E-06 147.484004386659 0.01155775470419 -98.210714205191 9.9608117083172E-05 150.561268034863 
                               0.971913835103308 -114.63911485073 0.000237878385106519 153.101584390196 0.000218880450299285 156.367699219514 2.43864823728238E-05 154.399255193458 
                               8.43389476964068E-06 149.446204968462 4.21838128199166E-05 154.778933762757 9.96081170831719E-05 150.561268034863 0.011510904521801 -98.1707988794357 
                               0.000237877461133282 153.09616643369  0.972054996522015 -114.125794256184 2.27639555052779E-05 154.247141001911 0.000110316117720594 155.676791054929 
                               0.000218909000382544 156.366961729655 2.43779376346209E-05 154.255404087084 0.971913835103309 -114.63911485073 0.000237877461133283 153.09616643369  
                               0.0110312016210538 -97.570364878117 9.98120427405759E-05 148.368444740331 7.83467553174646E-05 152.519650262898 8.95096348449202E-06 153.802910914104 
                               2.27702730550454E-05 154.233164894469 0.000110338734938375 155.659456287503 0.000237878385106519 153.101584390196 0.972054996522014 -114.125794256184 
                               9.98120427405759E-05 148.368444740331 0.0111177806683663 -97.5907253433771 8.37315756106621E-06 151.770310727113 4.2438060207531E-05 150.190769486818 
                               0.973799543583133 -106.90991745156 0.00030914002731622 160.718598928986 0.000218880450299285 156.367699219514 2.27639555052779E-05 154.247141001911 
                               7.83467553174643E-05 152.519650262898 8.3731575610662E-06 151.770310727113 0.0105382977714971 -106.545678361575 8.98346724700163E-05 157.944868449385 
                               0.000309147083246614 160.729984897902 0.973959821902249 -106.390711573085 2.43864823728237E-05 154.399255193458 0.000110316117720594 155.676791054929 
                               8.95096348449201E-06 153.802910914104 4.24380602075312E-05 150.190769486818 8.98346724700162E-05 157.944868449385 0.0106527009412894 -103.628154761903 
! Gamma         0                13.622992642686  0                13.622992642686  0                13.622992642686  0                13.622992642686  0                13.622992642686  0                13.622992642686  0                13.622992642686  0                13.622992642686  
! Port Impedance         50               0                50               0                50               0                50               0                50               0                50               0                50               0                50               0                
0.7                            0.011420099071227 -107.745996058638 0.000141141805085877 147.554303169395 0.00011559188805363 144.94112934452  1.23095181749603E-05 142.777111535292 
                               0.000234782170433911 147.968943483394 2.43848133829583E-05 145.900539692045 0.972523895420918 -115.084072178991 0.000331825386803005 152.617701790354 
                               0.000141141805085877 147.554303169395 0.0114182747755531 -105.326575489207 1.3074612061095E-05 141.445004363065 6.14180039636324E-05 146.998014565009 
                               2.61103422666959E-05 145.917690089758 0.000118226295590307 147.340768432086 0.000331812318831817 152.605585391588 0.972691929475294 -114.52530409606 
                               0.00011559188805363 144.941129344519 1.30746120610949E-05 141.445004363064 0.0110679017562871 -97.3727747793727 0.000141262013894821 142.60203880777  
                               0.970552020862841 -123.404320794585 0.000255240919441332 144.420397203628 0.00023472761981781 147.970261073622 2.61178337953232E-05 146.071268526332 
                               1.23095181749602E-05 142.777111535292 6.14180039636321E-05 146.998014565009 0.000141262013894821 142.60203880777  0.0111036664572129 -96.6825576466462 
                               0.000255241210613931 144.415904623237 0.970699207632065 -122.851721255512 2.43749954042436E-05 145.917939463488 0.000118191642853416 147.36097877116  
                               0.000234782170433911 147.968943483394 2.61103422666959E-05 145.917690089758 0.970552020862841 -123.404320794585 0.000255241210613931 144.415904623237 
                               0.0105600031855457 -96.2335332262793 0.000141397394108088 141.067859985829 0.000115444995980404 145.227966504815 1.30981008069195E-05 145.751715791554 
                               2.43848133829583E-05 145.900539692045 0.000118226295590306 147.340768432086 0.000255240919441332 144.420397203628 0.970699207632064 -122.851721255512 
                               0.000141397394108088 141.067859985829 0.010693901630785 -95.5986866207255 1.22515833916431E-05 144.39568834038  6.16405497317714E-05 143.363251064745 
                               0.972523895420919 -115.084072178991 0.000331812318831816 152.605585391588 0.00023472761981781 147.970261073622 2.43749954042436E-05 145.917939463488 
                               0.000115444995980404 145.227966504815 1.22515833916431E-05 144.39568834038  0.00967306919349276 -106.670534416962 0.000140640958349373 150.631847654247 
                               0.000331825386803005 152.617701790354 0.972691929475294 -114.52530409606 2.61178337953231E-05 146.071268526332 0.000118191642853416 147.36097877116  
                               1.30981008069195E-05 145.751715791554 6.16405497317713E-05 143.363251064745 0.000140640958349373 150.631847654247 0.00985351090475293 -104.033480786865 
! Gamma         0                14.6709151536618 0                14.6709151536618 0                14.6709151536618 0                14.6709151536618 0                14.6709151536618 0                14.6709151536618 0                14.6709151536618 0                14.6709151536618 
! Port Impedance         50               0                50               0                50               0                50               0                50               0                50               0                50               0                50               0                
0.75                           0.0107888522158526 -107.101007337144 0.000195024635601711 140.92195948901  0.000154365224186812 137.421278193528 1.63410158353475E-05 135.488226526477 
                               0.000250492619429606 139.583429342088 2.59798710273283E-05 137.571738338392 0.971266171483447 -123.25301364296 0.00035427266485953 144.5151060195   
                               0.000195024635601711 140.92195948901  0.0108340580581832 -105.016952041523 1.73867514489142E-05 134.518040634227 8.14820038671088E-05 139.078789216427 
                               2.7822440855711E-05 137.581775633053 0.000126028289917262 139.03194186015  0.000354253284378434 144.502587285512 0.971441648221873 -122.654701091774 
                               0.000154365224186812 137.421278193528 1.73867514489142E-05 134.518040634227 0.0108787046820718 -94.9317091165663 0.000184114989947035 134.418463750673 
                               0.969208712139936 -132.164001583722 0.000272451693679628 135.757193646715 0.000250406067877704 139.586506896504 2.7828243269446E-05 137.745914668916 
                               1.63410158353475E-05 135.488226526477 8.14820038671085E-05 139.078789216426 0.000184114989947035 134.418463750673 0.0110518991322883 -93.7312612544295 
                               0.000272456314744157 135.753796655859 0.969361829297095 -131.572164465798 2.59661011795334E-05 137.59410366898  0.000125979954591018 139.056253668051 
                               0.000250492619429606 139.583429342088 2.78224408557109E-05 137.581775633053 0.969208712139937 -132.164001583722 0.000272456314744157 135.753796655859 
                               0.0104257831355554 -93.2949495689545 0.000184205034880469 133.293789264423 0.000154182393336799 137.521162072509 1.7408874665276E-05 137.644172457741 
                               2.59798710273283E-05 137.571738338392 0.000126028289917262 139.03194186015  0.000272451693679628 135.757193646715 0.969361829297094 -131.572164465798 
                               0.000184205034880469 133.293789264423 0.0106555967330108 -92.0564198415938 1.62838113643514E-05 136.688441200857 8.16833662171246E-05 135.958036388137 
                               0.971266171483446 -123.25301364296 0.000354253284378434 144.502587285512 0.000250406067877703 139.586506896504 2.59661011795333E-05 137.59410366898  
                               0.000154182393336798 137.521162072509 1.62838113643514E-05 136.688441200857 0.0089748963790592 -104.064829527043 0.000194515053085205 142.995873996712 
                               0.00035427266485953 144.5151060195   0.971441648221873 -122.654701091774 2.7828243269446E-05 137.745914668916 0.000125979954591018 139.056253668051 
                               1.74088746652761E-05 137.644172457741 8.16833662171247E-05 135.958036388137 0.000194515053085205 142.995873996712 0.00920399346377403 -101.98483997141 
! Gamma         0                15.7188376646376 0                15.7188376646376 0                15.7188376646377 0                15.7188376646376 0                15.7188376646376 0                15.7188376646377 0                15.7188376646377 0                15.7188376646376 
! Port Impedance         50               0                50               0                50               0                50               0                50               0                50               0                50               0                50               0                
0.8                            0.0103933993195908 -104.559334610046 0.000250511799057746 133.816529642471 0.000193563366810292 129.671844344515 2.03978859220254E-05 127.921278718396 
                               0.000266067231826649 131.214776886987 2.75575817608794E-05 129.252457528177 0.970031150332534 -131.41727431285 0.000376515794006299 136.429197089629 
                               0.000250511799057746 133.816529642471 0.0104619237135439 -102.972853600831 2.1732729196142E-05 127.191813342335 0.000101754219467321 131.10398767083  
                               2.95161986819195E-05 129.253224955671 0.000133759010878477 130.737402354061 0.000376491111953607 136.41654787087  0.970213851499234 -130.779427689459 
                               0.000193563366810292 129.671844344515 2.1732729196142E-05 127.191813342335 0.0110942270211214 -91.7768053242033 0.000226676936349609 126.134691205505 
                               0.967887981458684 -140.918696035893 0.000289551409644837 127.115228091159 0.00026594357734543 131.220983787963 2.95196902308901E-05 129.429060925929 
                               2.03978859220255E-05 127.921278718396 0.000101754219467321 131.10398767083  0.000226676936349609 126.134691205505 0.0114498935291  -90.3975769203882 
                               0.000289564470946285 127.112886487328 0.968046845710805 -140.287675342339 2.75396308286599E-05 129.281307864531 0.000133696183645451 130.767056993013 
                               0.000266067231826649 131.214776886986 2.95161986819195E-05 129.253224955671 0.967887981458684 -140.918696035893 0.000289564470946284 127.112886487328 
                               0.0107265877868705 -89.8250775715383 0.000226735877141247 125.300081177449 0.000193335050235305 129.633000278477 2.17458969517888E-05 129.515438011613 
                               2.75575817608795E-05 129.252457528177 0.000133759010878477 130.737402354061 0.000289551409644837 127.115228091159 0.968046845710805 -140.287675342339 
                               0.000226735877141247 125.300081177449 0.0111000892587616 -88.2024392451971 2.03405925103426E-05 128.834488819556 0.00010193669353628 128.287748955661 
                               0.970031150332534 -131.41727431285 0.000376491111953607 136.41654787087  0.00026594357734543 131.220983787963 2.75396308286598E-05 129.281307864531 
                               0.000193335050235305 129.633000278477 2.03405925103426E-05 128.834488819555 0.00862740858975136 -98.92131457273  0.000249932534207869 135.233812242895 
                               0.000376515794006299 136.429197089629 0.970213851499233 -130.779427689459 2.95196902308902E-05 129.429060925929 0.000133696183645451 130.767056993013 
                               2.17458969517888E-05 129.515438011613 0.00010193669353628 128.287748955661 0.000249932534207869 135.233812242895 0.00886487465282008 -97.6579081130177 
! Gamma         0                16.7667601756135 0                16.7667601756135 0                16.7667601756135 0                16.7667601756135 0                16.7667601756135 0                16.7667601756135 0                16.7667601756135 0                16.7667601756135 
! Port Impedance         50               0                50               0                50               0                50               0                50               0                50               0                50               0                50               0                
0.85                           0.0103612933026529 -100.744048183103 0.00030593763290824 126.479948169972 0.000231886123370828 121.807504763433 2.43431428621617E-05 120.210857608437 
                               0.000281542743634002 122.864637956523 2.91209964101624E-05 120.946210422641 0.968821821450588 -139.577354095407 0.000398600771967228 128.363996637463 
                               0.00030593763290824 126.479948169972 0.0104145814784007 -99.7398785772291 2.59656493884821E-05 119.657797569641 0.000121573346378653 123.107373586573 
                               3.11944719461582E-05 120.935627223548 0.000141437277700188 122.458996105928 0.000398572764340885 128.35136393826  0.969011647092581 -138.899980133806 
                               0.000231886123370828 121.807504763433 2.59656493884821E-05 119.657797569641 0.0117330842553287 -89.0693409988978 0.000267387263208355 117.80300671457  
                               0.966592668263763 -149.668890042161 0.000306591479224268 118.494342824473 0.000281378340626439 122.875449872636 3.11951317382388E-05 121.124547276978 
                               2.43431428621618E-05 120.210857608437 0.000121573346378653 123.107373586573 0.000267387263208355 117.80300671457  0.0122910396411272 -87.8842990032671 
                               0.000306617829657994 118.492772223785 0.966756903450926 -148.998739900928 2.90988853005398E-05 120.982899255516 0.000141360145759281 122.49513399031  
                               0.000281542743634002 122.864637956523 3.11944719461581E-05 120.935627223548 0.966592668263763 -149.668890042161 0.000306617829657993 118.492772223785 
                               0.0114626509061709 -87.0959948209161 0.000267426662744025 117.193412564673 0.000231604987546576 121.653630537567 2.59636600125266E-05 121.379720865077 
                               2.91209964101625E-05 120.946210422641 0.000141437277700188 122.458996105928 0.000306591479224268 118.494342824473 0.966756903450926 -148.998739900928 
                               0.000267426662744025 117.193412564673 0.0120118112543452 -85.3651001190134 2.42853569124942E-05 120.906864075563 0.000121735532081758 120.476398443004 
                               0.968821821450588 -139.577354095407 0.000398572764340886 128.351363938259 0.000281378340626439 122.875449872636 2.90988853005397E-05 120.982899255516 
                               0.000231604987546575 121.653630537567 2.42853569124941E-05 120.906864075563 0.008785257905294 -92.5606151491937 0.000305247278675674 127.413053551412 
                               0.000398600771967228 128.363996637463 0.969011647092582 -138.899980133806 3.11951317382388E-05 121.124547276978 0.000141360145759281 122.49513399031  
                               2.59636600125266E-05 121.379720865077 0.000121735532081758 120.476398443004 0.000305247278675674 127.413053551412 0.00897356990926442 -92.1329125508316 
! Gamma         0                17.8146826865892 0                17.8146826865892 0                17.8146826865893 0                17.8146826865892 0                17.8146826865892 0                17.8146826865893 0                17.8146826865893 0                17.8146826865892 
! Port Impedance         50               0                50               0                50               0                50               0                50               0                50               0                50               0                50               0                
0.9                            0.0107590945123989 -96.7917594338178 0.000359564911253262 119.018914530397 0.00026799285483063 113.883057014429 2.80363150201077E-05 112.421889843792 
                               0.000296963058853634 114.531965199144 3.06740076521577E-05 112.654206864332 0.96763978021543 -147.733704366433 0.000420588696905007 120.320461336925 
                               0.000359564911253262 119.018914530396 0.0107529997323803 -96.3012428501649 2.9935159964588E-05 112.00768781561  0.000140256092752558 115.106491002377 
                               3.28609670234749E-05 112.63048150747  0.000149085395352658 114.195980989525 0.000420559865426249 120.307854263763 0.96783674794103 -147.016809654317 
                               0.00026799285483063 113.88305701443  2.9935159964588E-05 112.00768781561  0.0127189388528215 -87.6805010170331 0.000304661409535211 109.450214562954 
                               0.965324730178917 -158.415017269083 0.000323628933909878 109.891157435493 0.000296756202752909 114.548868280863 3.28584627267562E-05 112.83402182789  
                               2.80363150201078E-05 112.421889843792 0.000140256092752558 115.106491002377 0.000304661409535211 109.450214562954 0.0134731574491852 -86.9358079954951 